 running on    8 total cores
 distrk:  each k-point on    2 cores,    4 groups
 distr:  one band on    1 cores,    2 groups
 using from now: INCAR     
 vasp.5.4.4.16052018 (build Dec 07 2020 11:33:42) complex                       
  
 POSCAR found type information on POSCAR  Cl Br Pt
 POSCAR found :  3 types and       4 ions
 scaLAPACK will be used

 ----------------------------------------------------------------------------- 
|                                                                             |
|           W    W    AA    RRRRR   N    N  II  N    N   GGGG   !!!           |
|           W    W   A  A   R    R  NN   N  II  NN   N  G    G  !!!           |
|           W    W  A    A  R    R  N N  N  II  N N  N  G       !!!           |
|           W WW W  AAAAAA  RRRRR   N  N N  II  N  N N  G  GGG   !            |
|           WW  WW  A    A  R   R   N   NN  II  N   NN  G    G                |
|           W    W  A    A  R    R  N    N  II  N    N   GGGG   !!!           |
|                                                                             |
|      For optimal performance we recommend to set                            |
|        NCORE= 4 - approx SQRT( number of cores)                             |
|      NCORE specifies how many cores store one orbital (NPAR=cpu/NCORE).     |
|      This setting can  greatly improve the performance of VASP for DFT.     |
|      The default,   NCORE=1            might be grossly inefficient         |
|      on modern multi-core architectures or massively parallel machines.     |
|      Do your own testing !!!!                                               |
|      Unfortunately you need to use the default for GW and RPA calculations. |
|      (for HF NCORE is supported but not extensively tested yet)             |
|                                                                             |
 ----------------------------------------------------------------------------- 


 ----------------------------------------------------------------------------- 
|                                                                             |
|           W    W    AA    RRRRR   N    N  II  N    N   GGGG   !!!           |
|           W    W   A  A   R    R  NN   N  II  NN   N  G    G  !!!           |
|           W    W  A    A  R    R  N N  N  II  N N  N  G       !!!           |
|           W WW W  AAAAAA  RRRRR   N  N N  II  N  N N  G  GGG   !            |
|           WW  WW  A    A  R   R   N   NN  II  N   NN  G    G                |
|           W    W  A    A  R    R  N    N  II  N    N   GGGG   !!!           |
|                                                                             |
|      You have enabled k-point parallelism (KPAR>1).                         |
|      This developmental code was originally  written by Paul Kent at ORNL,  |
|      and carefully double checked in Vienna.                                |
|      GW as well as linear response parallelism added by Martijn Marsman     |
|      and Georg Kresse.                                                      |
|      Carefully verify results versus KPAR=1.                                |
|      Report problems to Paul Kent and Vienna.                               |
|                                                                             |
 ----------------------------------------------------------------------------- 

 LDA part: xc-table for Pade appr. of Perdew
 POSCAR, INCAR and KPOINTS ok, starting setup
 FFT: planning ...
 WAVECAR not read
 entering main loop
       N       E                     dE             d eps       ncg     rms          rms(c)
DAV:   1     0.221396947718E+03    0.22140E+03   -0.10195E+04   712   0.800E+02
DAV:   2     0.214921170973E+01   -0.21925E+03   -0.21023E+03  1056   0.205E+02
DAV:   3    -0.170493653983E+02   -0.19199E+02   -0.18935E+02   862   0.694E+01
DAV:   4    -0.174355913053E+02   -0.38623E+00   -0.38550E+00   866   0.112E+01
DAV:   5    -0.174448060938E+02   -0.92148E-02   -0.92133E-02   862   0.169E+00    0.162E+01
DAV:   6    -0.165983421515E+02    0.84646E+00   -0.22672E+00   872   0.133E+01    0.910E+00
DAV:   7    -0.166045678827E+02   -0.62257E-02   -0.57342E-01   800   0.772E+00    0.313E+00
DAV:   8    -0.166557963103E+02   -0.51228E-01   -0.43670E-01   842   0.951E+00    0.251E+00
DAV:   9    -0.165481112082E+02    0.10769E+00   -0.15436E-01   812   0.555E+00    0.422E-01
DAV:  10    -0.165473717072E+02    0.73950E-03   -0.25401E-02   758   0.997E-01    0.136E-01
DAV:  11    -0.165473205093E+02    0.51198E-04   -0.19502E-03   800   0.370E-01    0.831E-02
DAV:  12    -0.165473479446E+02   -0.27435E-04   -0.17079E-04   844   0.924E-02
   1 F= -.17791388E+02 E0= -.17791388E+02  d E =-.177914E+02
stress tensor set to zero in row and column 1
stress tensor set to zero in row and column 3
 BRION: g(F)=  0.149E-02 g(S)=  0.853E-03
 bond charge predicted
       N       E                     dE             d eps       ncg     rms          rms(c)
DAV:   1    -0.165544283828E+02   -0.71079E-02   -0.32084E-01   704   0.339E+00    0.411E-01
DAV:   2    -0.165523132645E+02    0.21151E-02   -0.13457E-02   860   0.849E-01    0.183E-01
DAV:   3    -0.165518790328E+02    0.43423E-03   -0.79647E-04   842   0.254E-01    0.112E-01
DAV:   4    -0.165518812378E+02   -0.22049E-05   -0.76667E-04   842   0.348E-01    0.103E-01
DAV:   5    -0.165517714655E+02    0.10977E-03   -0.28082E-04   830   0.208E-01    0.389E-02
DAV:   6    -0.165517812294E+02   -0.97639E-05   -0.36978E-05   604   0.406E-02
   2 F= -.17792817E+02 E0= -.17792817E+02  d E =-.142893E-02
stress tensor set to zero in row and column 1
stress tensor set to zero in row and column 3
 BRION: g(F)=  0.697E-03 g(S)=  0.173E-03 retain N=  1 mean eig= 0.69
 eig:   0.689
 bond charge predicted
       N       E                     dE             d eps       ncg     rms          rms(c)
DAV:   1    -0.165517442767E+02    0.27189E-04   -0.50240E-02   704   0.130E+00    0.144E-01
DAV:   2    -0.165515865262E+02    0.15775E-03   -0.23876E-03   854   0.336E-01    0.561E-02
DAV:   3    -0.165515567011E+02    0.29825E-04   -0.13497E-04   608   0.147E-01
   3 F= -.17793349E+02 E0= -.17793349E+02  d E =-.532017E-03
stress tensor set to zero in row and column 1
stress tensor set to zero in row and column 3
 BRION: g(F)=  0.406E-03 g(S)=  0.288E-03 retain N=  1 mean eig= 1.83
 eig:   1.834
 bond charge predicted
       N       E                     dE             d eps       ncg     rms          rms(c)
DAV:   1    -0.165513559547E+02    0.23057E-03   -0.29474E-02   752   0.107E+00    0.140E-01
DAV:   2    -0.165510134237E+02    0.34253E-03   -0.17022E-03   872   0.305E-01    0.643E-02
DAV:   3    -0.165509546645E+02    0.58759E-04   -0.12624E-04   632   0.120E-01    0.456E-02
DAV:   4    -0.165509514837E+02    0.31808E-05   -0.82717E-05   574   0.129E-01
   4 F= -.17793509E+02 E0= -.17793509E+02  d E =-.159154E-03
stress tensor set to zero in row and column 1
stress tensor set to zero in row and column 3
 BRION: g(F)=  0.338E-03 g(S)=  0.122E-04 retain N=  2 mean eig= 3.76
 eig:   3.759  3.759
 reached required accuracy - stopping structural energy minimisation
 writing wavefunctions
