 vasp.5.4.4.16052018 (build Dec 07 2020 11:33:42) complex                       
  
 executed on             LinuxIFC date 2020.12.13  00:45:18
 running on    8 total cores
 distrk:  each k-point on    2 cores,    4 groups
 distr:  one band on NCORES_PER_BAND=   1 cores,    2 groups


--------------------------------------------------------------------------------------------------------


 INCAR:
 POTCAR:    PAW_PBE Cl 06Sep2000                  
 POTCAR:    PAW_PBE Br 06Sep2000                  
 POTCAR:    PAW_PBE Pt 04Feb2005                  

 ----------------------------------------------------------------------------- 
|                                                                             |
|           W    W    AA    RRRRR   N    N  II  N    N   GGGG   !!!           |
|           W    W   A  A   R    R  NN   N  II  NN   N  G    G  !!!           |
|           W    W  A    A  R    R  N N  N  II  N N  N  G       !!!           |
|           W WW W  AAAAAA  RRRRR   N  N N  II  N  N N  G  GGG   !            |
|           WW  WW  A    A  R   R   N   NN  II  N   NN  G    G                |
|           W    W  A    A  R    R  N    N  II  N    N   GGGG   !!!           |
|                                                                             |
|      For optimal performance we recommend to set                            |
|        NCORE= 4 - approx SQRT( number of cores)                             |
|      NCORE specifies how many cores store one orbital (NPAR=cpu/NCORE).     |
|      This setting can  greatly improve the performance of VASP for DFT.     |
|      The default,   NCORE=1            might be grossly inefficient         |
|      on modern multi-core architectures or massively parallel machines.     |
|      Do your own testing !!!!                                               |
|      Unfortunately you need to use the default for GW and RPA calculations. |
|      (for HF NCORE is supported but not extensively tested yet)             |
|                                                                             |
 ----------------------------------------------------------------------------- 


 ----------------------------------------------------------------------------- 
|                                                                             |
|           W    W    AA    RRRRR   N    N  II  N    N   GGGG   !!!           |
|           W    W   A  A   R    R  NN   N  II  NN   N  G    G  !!!           |
|           W    W  A    A  R    R  N N  N  II  N N  N  G       !!!           |
|           W WW W  AAAAAA  RRRRR   N  N N  II  N  N N  G  GGG   !            |
|           WW  WW  A    A  R   R   N   NN  II  N   NN  G    G                |
|           W    W  A    A  R    R  N    N  II  N    N   GGGG   !!!           |
|                                                                             |
|      You have enabled k-point parallelism (KPAR>1).                         |
|      This developmental code was originally  written by Paul Kent at ORNL,  |
|      and carefully double checked in Vienna.                                |
|      GW as well as linear response parallelism added by Martijn Marsman     |
|      and Georg Kresse.                                                      |
|      Carefully verify results versus KPAR=1.                                |
|      Report problems to Paul Kent and Vienna.                               |
|                                                                             |
 ----------------------------------------------------------------------------- 

 POTCAR:    PAW_PBE Cl 06Sep2000                  
   VRHFIN =Cl: s2p5                                                             
   LEXCH  = PE                                                                  
   EATOM  =   409.7259 eV,   30.1140 Ry                                         
                                                                                
   TITEL  = PAW_PBE Cl 06Sep2000                                                
   LULTRA =        F    use ultrasoft PP ?                                      
   IUNSCR =        1    unscreen: 0-lin 1-nonlin 2-no                           
   RPACOR =    1.500    partial core radius                                     
   POMASS =   35.453; ZVAL   =    7.000    mass and valenz                      
   RCORE  =    1.900    outmost cutoff radius                                   
   RWIGS  =    2.100; RWIGS  =    1.111    wigner-seitz radius (au A)           
   ENMAX  =  262.472; ENMIN  =  196.854 eV                                      
   ICORE  =        2    local potential                                         
   LCOR   =        T    correct aug charges                                     
   LPAW   =        T    paw PP                                                  
   EAUG   =  356.192                                                            
   DEXC   =    0.000                                                            
   RMAX   =    1.945    core radius for proj-oper                               
   RAUG   =    1.300    factor for augmentation sphere                          
   RDEP   =    2.020    radius for radial grids                                 
   RDEPT  =    1.678    core radius for aug-charge                              
                                                                                
   Atomic configuration                                                         
    6 entries                                                                   
     n  l   j            E        occ.                                          
     1  0  0.50     -2751.1850   2.0000                                         
     2  0  0.50      -252.6861   2.0000                                         
     2  1  1.50      -191.6157   6.0000                                         
     3  0  0.50       -20.6916   2.0000                                         
     3  1  0.50        -8.5949   5.0000                                         
     3  2  1.50        -8.1635   0.0000                                         
   Description                                                                  
     l       E           TYP  RCUT    TYP  RCUT                                 
     0    -20.6915656     23  1.900                                             
     0    -22.0521482     23  1.900                                             
     1     -8.5948577     23  1.900                                             
     1     -5.3847331     23  1.900                                             
     2     -8.1634956     23  1.900                                             
  local pseudopotential read in
  partial core-charges read in
  partial kinetic energy density read in
  atomic valenz-charges read in
  non local Contribution for L=           0  read in
    real space projection operators read in
  non local Contribution for L=           0  read in
    real space projection operators read in
  non local Contribution for L=           1  read in
    real space projection operators read in
  non local Contribution for L=           1  read in
    real space projection operators read in
    PAW grid and wavefunctions read in
 
   number of l-projection  operators is LMAX  =           4
   number of lm-projection operators is LMMAX =           8
 
 POTCAR:    PAW_PBE Br 06Sep2000                  
   VRHFIN =Br: s2p5                                                             
   LEXCH  = PE                                                                  
   EATOM  =   368.4488 eV,   27.0802 Ry                                         
                                                                                
   TITEL  = PAW_PBE Br 06Sep2000                                                
   LULTRA =        F    use ultrasoft PP ?                                      
   IUNSCR =        1    unscreen: 0-lin 1-nonlin 2-no                           
   RPACOR =    1.900    partial core radius                                     
   POMASS =   79.904; ZVAL   =    7.000    mass and valenz                      
   RCORE  =    2.100    outmost cutoff radius                                   
   RWIGS  =    2.200; RWIGS  =    1.164    wigner-seitz radius (au A)           
   ENMAX  =  216.285; ENMIN  =  162.214 eV                                      
   ICORE  =        3    local potential                                         
   LCOR   =        T    correct aug charges                                     
   LPAW   =        T    paw PP                                                  
   EAUG   =  503.852                                                            
   DEXC   =    0.000                                                            
   RMAX   =    2.139    core radius for proj-oper                               
   RAUG   =    1.300    factor for augmentation sphere                          
   RDEP   =    2.186    radius for radial grids                                 
   RDEPT  =    1.890    core radius for aug-charge                              
                                                                                
   Atomic configuration                                                         
   10 entries                                                                   
     n  l   j            E        occ.                                          
     1  0  0.50    -13316.2796   2.0000                                         
     2  0  0.50     -1732.8239   2.0000                                         
     2  1  1.50     -1528.2193   6.0000                                         
     3  0  0.50      -238.0460   2.0000                                         
     3  1  1.50      -173.4609   6.0000                                         
     3  2  2.50       -66.7132  10.0000                                         
     4  0  0.50       -20.1334   2.0000                                         
     4  1  0.50        -7.8591   5.0000                                         
     4  2  2.50        -8.1635   0.0000                                         
     4  3  2.50        -8.1635   0.0000                                         
   Description                                                                  
     l       E           TYP  RCUT    TYP  RCUT                                 
     0    -20.1333652     23  2.100                                             
     0    -21.4939478     23  2.100                                             
     1     -7.8591052     23  2.100                                             
     1     -3.1608434     23  2.100                                             
     2     -8.1634956     23  2.100                                             
     3     -1.3605826      7  2.100                                             
  local pseudopotential read in
  partial core-charges read in
  partial kinetic energy density read in
  atomic valenz-charges read in
  non local Contribution for L=           0  read in
    real space projection operators read in
  non local Contribution for L=           0  read in
    real space projection operators read in
  non local Contribution for L=           1  read in
    real space projection operators read in
  non local Contribution for L=           1  read in
    real space projection operators read in
  non local Contribution for L=           2  read in
    real space projection operators read in
    PAW grid and wavefunctions read in
 
   number of l-projection  operators is LMAX  =           5
   number of lm-projection operators is LMMAX =          13
 
 POTCAR:    PAW_PBE Pt 04Feb2005                  
   VRHFIN =Pt: s1d9                                                             
   LEXCH  = PE                                                                  
   EATOM  =   729.1176 eV,   53.5886 Ry                                         
                                                                                
   TITEL  = PAW_PBE Pt 04Feb2005                                                
   LULTRA =        F    use ultrasoft PP ?                                      
   IUNSCR =        1    unscreen: 0-lin 1-nonlin 2-no                           
   RPACOR =    2.330    partial core radius                                     
   POMASS =  195.080; ZVAL   =   10.000    mass and valenz                      
   RCORE  =    2.600    outmost cutoff radius                                   
   RWIGS  =    2.750; RWIGS  =    1.455    wigner-seitz radius (au A)           
   ENMAX  =  230.283; ENMIN  =  172.712 eV                                      
   ICORE  =        3    local potential                                         
   LCOR   =        T    correct aug charges                                     
   LPAW   =        T    paw PP                                                  
   EAUG   =  358.966                                                            
   DEXC   =    0.000                                                            
   RMAX   =    2.658    core radius for proj-oper                               
   RAUG   =    1.300    factor for augmentation sphere                          
   RDEP   =    2.761    radius for radial grids                                 
   RDEPT  =    2.203    core radius for aug-charge                              
                                                                                
   Atomic configuration                                                         
   16 entries                                                                   
     n  l   j            E        occ.                                          
     1  0  0.50    -78401.1885   2.0000                                         
     2  0  0.50    -13770.7750   2.0000                                         
     2  1  1.50    -11931.0468   6.0000                                         
     3  0  0.50     -3234.7234   2.0000                                         
     3  1  1.50     -2699.2216   6.0000                                         
     3  2  2.50     -2119.5714  10.0000                                         
     4  0  0.50      -695.1528   2.0000                                         
     4  1  1.50      -519.6034   6.0000                                         
     4  2  2.50      -306.6786  10.0000                                         
     4  3  3.50       -70.1041  14.0000                                         
     5  0  0.50      -101.7747   2.0000                                         
     5  1  1.50       -55.9873   6.0000                                         
     5  2  2.50        -6.1423   9.0000                                         
     6  0  0.50        -5.6573   1.0000                                         
     6  1  1.50        -6.8029   0.0000                                         
     5  3  2.50        -1.3606   0.0000                                         
   Description                                                                  
     l       E           TYP  RCUT    TYP  RCUT                                 
     2     -6.1423404     23  2.500                                             
     2     -7.5029230     23  2.500                                             
     0     -5.6573207     23  2.500                                             
     0      0.7416693     23  2.500                                             
     1     -2.7211652     23  2.600                                             
     1     20.4087390     23  2.600                                             
     3     -1.3605826     23  2.500                                             
  local pseudopotential read in
  partial core-charges read in
  partial kinetic energy density read in
  atomic valenz-charges read in
  non local Contribution for L=           2  read in
    real space projection operators read in
  non local Contribution for L=           2  read in
    real space projection operators read in
  non local Contribution for L=           0  read in
    real space projection operators read in
  non local Contribution for L=           0  read in
    real space projection operators read in
  non local Contribution for L=           1  read in
    real space projection operators read in
  non local Contribution for L=           1  read in
    real space projection operators read in
    PAW grid and wavefunctions read in
 
   number of l-projection  operators is LMAX  =           6
   number of lm-projection operators is LMMAX =          18
 
  PAW_PBE Cl 06Sep2000                  :
 energy of atom  1       EATOM= -409.7259
 kinetic energy error for atom=    0.0150 (will be added to EATOM!!)
  PAW_PBE Br 06Sep2000                  :
 energy of atom  2       EATOM= -368.4488
 kinetic energy error for atom=    0.0072 (will be added to EATOM!!)
  PAW_PBE Pt 04Feb2005                  :
 energy of atom  3       EATOM= -729.1176
 kinetic energy error for atom=    0.0416 (will be added to EATOM!!)
 
 
 POSCAR: ClBrPt2                                 
  positions in direct lattice
  velocities in cartesian coordinates
 exchange correlation table for  LEXCH =        8
   RHO(1)=    0.500       N(1)  =     2000
   RHO(2)=  100.500       N(2)  =     4000
 


--------------------------------------------------------------------------------------------------------


 ion  position               nearest neighbor table
   1  0.000  0.500  0.168-   4 2.49   4 2.49   4 2.49
   2  0.000  0.500  0.386-   3 2.57   3 2.58   3 2.58
   3  0.333  0.167  0.310-   4 2.57   4 2.57   2 2.57   4 2.58   2 2.58   2 2.58
   4  0.667  0.833  0.236-   1 2.49   1 2.49   1 2.49   3 2.57   3 2.57   3 2.58
 

IMPORTANT INFORMATION: All symmetrisations will be switched off!
NOSYMM: (Re-)initialisation of all symmetry stuff for point group C_1.

 
 
 KPOINTS: Automatic mesh                          

Automatic generation of k-mesh.
Space group operators:
 irot       det(A)        alpha          n_x          n_y          n_z        tau_x        tau_y        tau_z
    1     1.000000     0.000000     1.000000     0.000000     0.000000     0.000000     0.000000     0.000000
 
 Subroutine IBZKPT returns following result:
 ===========================================
 
 Found     16 irreducible k-points:
 
 Following reciprocal coordinates:
            Coordinates               Weight
  0.000000  0.000000  0.000000      1.000000
  0.250000  0.000000  0.000000      1.000000
  0.500000  0.000000  0.000000      1.000000
 -0.250000 -0.000000  0.000000      1.000000
  0.000000  0.250000  0.000000      1.000000
  0.250000  0.250000  0.000000      1.000000
  0.500000  0.250000  0.000000      1.000000
 -0.250000  0.250000  0.000000      1.000000
  0.000000  0.500000  0.000000      1.000000
  0.250000  0.500000  0.000000      1.000000
  0.500000  0.500000  0.000000      1.000000
 -0.250000  0.500000  0.000000      1.000000
 -0.000000 -0.250000  0.000000      1.000000
  0.250000 -0.250000  0.000000      1.000000
  0.500000 -0.250000  0.000000      1.000000
 -0.250000 -0.250000  0.000000      1.000000
 
 Following cartesian coordinates:
            Coordinates               Weight
  0.000000  0.000000  0.000000      1.000000
  0.069479  0.039191  0.000000      1.000000
  0.138958  0.078382  0.000000      1.000000
 -0.069479 -0.039191  0.000000      1.000000
  0.000799  0.079367  0.000000      1.000000
  0.070278  0.118558  0.000000      1.000000
  0.139758  0.157749  0.000000      1.000000
 -0.068680  0.040176  0.000000      1.000000
  0.001599  0.158735  0.000000      1.000000
  0.071078  0.197926  0.000000      1.000000
  0.140557  0.237117  0.000000      1.000000
 -0.067881  0.119544  0.000000      1.000000
 -0.000799 -0.079367  0.000000      1.000000
  0.068680 -0.040176  0.000000      1.000000
  0.138159 -0.000986  0.000000      1.000000
 -0.070278 -0.118558  0.000000      1.000000
 


--------------------------------------------------------------------------------------------------------




 Dimension of arrays:
   k-points           NKPTS =     16   k-points in BZ     NKDIM =     16   number of bands    NBANDS=     22
   number of dos      NEDOS =    301   number of ions     NIONS =      4
   non local maximal  LDIM  =      6   non local SUM 2l+1 LMDIM =     18
   total plane-waves  NPLWV =  57600
   max r-space proj   IRMAX =      1   max aug-charges    IRDMAX=  15501
   dimension x,y,z NGX =    20 NGY =   24 NGZ =  120
   dimension x,y,z NGXF=    40 NGYF=   48 NGZF=  240
   support grid    NGXF=    40 NGYF=   48 NGZF=  240
   ions per type =               1   1   2
   NGX,Y,Z   is equivalent  to a cutoff of   9.19, 10.97,  9.97 a.u.
   NGXF,Y,Z  is equivalent  to a cutoff of  18.38, 21.94, 19.95 a.u.

 SYSTEM =  unknown system                          
 POSCAR =  ClBrPt2                                 

 Startparameter for this run:
   NWRITE =      2    write-flag & timer
   PREC   = accura    normal or accurate (medium, high low for compatibility)
   ISTART =      0    job   : 0-new  1-cont  2-samecut
   ICHARG =      2    charge: 1-file 2-atom 10-const
   ISPIN  =      1    spin polarized calculation?
   LNONCOLLINEAR =      F non collinear calculations
   LSORBIT =      F    spin-orbit coupling
   INIWAV =      1    electr: 0-lowe 1-rand  2-diag
   LASPH  =      F    aspherical Exc in radial PAW
   METAGGA=      F    non-selfconsistent MetaGGA calc.

 Electronic Relaxation 1
   ENCUT  =  300.0 eV  22.05 Ry    4.70 a.u.   5.11  5.14 28.25*2*pi/ulx,y,z
   ENINI  =  300.0     initial cutoff
   ENAUG  =  503.9 eV  augmentation charge cutoff
   NELM   =     60;   NELMIN=  2; NELMDL= -5     # of ELM steps 
   EDIFF  = 0.5E-04   stopping-criterion for ELM
   LREAL  =      F    real-space projection
   NLSPLINE    = F    spline interpolate recip. space projectors
   LCOMPAT=      F    compatible to vasp.4.4
   GGA_COMPAT  = T    GGA compatible to vasp.4.4-vasp.4.6
   LMAXPAW     = -100 max onsite density
   LMAXMIX     =    2 max onsite mixed and CHGCAR
   VOSKOWN=      0    Vosko Wilk Nusair interpolation
   ROPT   =    0.00000   0.00000   0.00000
 Ionic relaxation
   EDIFFG = 0.5E-03   stopping-criterion for IOM
   NSW    =    100    number of steps for IOM
   NBLOCK =      1;   KBLOCK =    100    inner block; outer block 
   IBRION =      1    ionic relax: 0-MD 1-quasi-New 2-CG
   NFREE  =      0    steps in history (QN), initial steepest desc. (CG)
   ISIF   =      3    stress and relaxation
   IWAVPR =     11    prediction:  0-non 1-charg 2-wave 3-comb
   ISYM   =     -1    0-nonsym 1-usesym 2-fastsym
   LCORR  =      T    Harris-Foulkes like correction to forces

   POTIM  = 0.5000    time-step for ionic-motion
   TEIN   =    0.0    initial temperature
   TEBEG  =    0.0;   TEEND  =   0.0 temperature during run
   SMASS  =  -3.00    Nose mass-parameter (am)
   estimated Nose-frequenzy (Omega)   =  0.10E-29 period in steps =****** mass=  -0.299E-27a.u.
   SCALEE = 1.0000    scale energy and forces
   NPACO  =    256;   APACO  = 16.0  distance and # of slots for P.C.
   PSTRESS=    0.0 pullay stress

  Mass of Ions in am
   POMASS =  35.45 79.90195.08
  Ionic Valenz
   ZVAL   =   7.00  7.00 10.00
  Atomic Wigner-Seitz radii
   RWIGS  =  -1.00 -1.00 -1.00
  virtual crystal weights 
   VCA    =   1.00  1.00  1.00
   NELECT =      34.0000    total number of electrons
   NUPDOWN=      -1.0000    fix difference up-down

 DOS related values:
   EMIN   =  10.00;   EMAX   =-10.00  energy-range for DOS
   EFERMI =   0.00
   ISMEAR =     0;   SIGMA  =   0.10  broadening in eV -4-tet -1-fermi 0-gaus

 Electronic relaxation 2 (details)
   IALGO  =     38    algorithm
   LDIAG  =      T    sub-space diagonalisation (order eigenvalues)
   LSUBROT=      F    optimize rotation matrix (better conditioning)
   TURBO    =      0    0=normal 1=particle mesh
   IRESTART =      0    0=no restart 2=restart with 2 vectors
   NREBOOT  =      0    no. of reboots
   NMIN     =      0    reboot dimension
   EREF     =   0.00    reference energy to select bands
   IMIX   =      4    mixing-type and parameters
     AMIX     =   0.40;   BMIX     =  1.00
     AMIX_MAG =   1.60;   BMIX_MAG =  1.00
     AMIN     =   0.10
     WC   =   100.;   INIMIX=   1;  MIXPRE=   1;  MAXMIX= -45

 Intra band minimization:
   WEIMIN = 0.0010     energy-eigenvalue tresh-hold
   EBREAK =  0.57E-06  absolut break condition
   DEPER  =   0.30     relativ break condition  

   TIME   =   0.40     timestep for ELM

  volume/ion in A,a.u.               =      56.99       384.61
  Fermi-wavevector in a.u.,A,eV,Ry     =   0.868171  1.640605 10.254991  0.753721
  Thomas-Fermi vector in A             =   1.986811
 
 Write flags
   LWAVE        =      T    write WAVECAR
   LDOWNSAMPLE  =      F    k-point downsampling of WAVECAR
   LCHARG       =      T    write CHGCAR
   LVTOT        =      F    write LOCPOT, total local potential
   LVHAR        =      F    write LOCPOT, Hartree potential only
   LELF         =      F    write electronic localiz. function (ELF)
   LORBIT       =      0    0 simple, 1 ext, 2 COOP (PROOUT), +10 PAW based schemes


 Dipole corrections
   LMONO  =      F    monopole corrections only (constant potential shift)
   LDIPOL =      T    correct potential (dipole corrections)
   IDIPOL =      3    1-x, 2-y, 3-z, 4-all directions 
   EPSILON=  1.0000000 bulk dielectric constant

 Exchange correlation treatment:
   GGA     =    --    GGA type
   LEXCH   =     8    internal setting for exchange type
   VOSKOWN=      0    Vosko Wilk Nusair interpolation
   LHFCALC =     F    Hartree Fock is set to
   LHFONE  =     F    Hartree Fock one center treatment
   AEXX    =    0.0000 exact exchange contribution

 Linear response parameters
   LEPSILON=     F    determine dielectric tensor
   LRPA    =     F    only Hartree local field effects (RPA)
   LNABLA  =     F    use nabla operator in PAW spheres
   LVEL    =     F    velocity operator in full k-point grid
   LINTERFAST=   F  fast interpolation
   KINTER  =     0    interpolate to denser k-point grid
   CSHIFT  =0.1000    complex shift for real part using Kramers Kronig
   OMEGAMAX=  -1.0    maximum frequency
   DEG_THRESHOLD= 0.2000000E-02 threshold for treating states as degnerate
   RTIME   =   -0.100 relaxation time in fs
  (WPLASMAI=    0.000 imaginary part of plasma frequency in eV, 0.658/RTIME)
   DFIELD  = 0.0000000 0.0000000 0.0000000 field for delta impulse in time
 
 Orbital magnetization related:
   ORBITALMAG=     F  switch on orbital magnetization
   LCHIMAG   =     F  perturbation theory with respect to B field
   DQ        =  0.001000  dq finite difference perturbation B field
   LLRAUG    =     F  two centre corrections for induced B field



--------------------------------------------------------------------------------------------------------


 quasi-Newton-method for relaxation of ions
 charge density and potential will be updated during run
 non-spin polarized calculation
 Variant of blocked Davidson
 Davidson routine will perform the subspace rotation
 perform sub-space diagonalisation
    after iterative eigenvector-optimisation
 modified Broyden-mixing scheme, WC =      100.0
 initial mixing is a Kerker type mixing with AMIX =  0.4000 and BMIX =      1.0000
 Hartree-type preconditioning will be used
 using additional bands            5
 reciprocal scheme for non local part
 use partial core corrections
 calculate Harris-corrections to forces 
   (improved forces if not selfconsistent)
 use gradient corrections 
 use of overlap-Matrix (Vanderbilt PP)
 Gauss-broadening in eV      SIGMA  =   0.10


--------------------------------------------------------------------------------------------------------


  energy-cutoff  :      300.00
  volume of cell :      227.98
      direct lattice vectors                 reciprocal lattice vectors
     3.618760253 -0.036443352  0.000000000     0.277916446  0.156763573  0.000000000
    -1.786911496  3.167904907  0.000000000     0.003197131  0.317469438  0.000000000
     0.000000000  0.000000000 20.000000000     0.000000000  0.000000000  0.050000000

  length of vectors
     3.618943753  3.637124440 20.000000000     0.319080506  0.317485536  0.050000000


 
 k-points in units of 2pi/SCALE and weight: Automatic mesh                          
   0.00000000  0.00000000  0.00000000       0.062
   0.06947911  0.03919089  0.00000000       0.062
   0.13895822  0.07838179  0.00000000       0.062
  -0.06947911 -0.03919089  0.00000000       0.062
   0.00079928  0.07936736  0.00000000       0.062
   0.07027839  0.11855825  0.00000000       0.062
   0.13975751  0.15774915  0.00000000       0.062
  -0.06867983  0.04017647  0.00000000       0.062
   0.00159857  0.15873472  0.00000000       0.062
   0.07107768  0.19792561  0.00000000       0.062
   0.14055679  0.23711651  0.00000000       0.062
  -0.06788055  0.11954383  0.00000000       0.062
  -0.00079928 -0.07936736  0.00000000       0.062
   0.06867983 -0.04017647  0.00000000       0.062
   0.13815894 -0.00098557  0.00000000       0.062
  -0.07027839 -0.11855825  0.00000000       0.062
 
 k-points in reciprocal lattice and weights: Automatic mesh                          
   0.00000000  0.00000000  0.00000000       0.062
   0.25000000  0.00000000  0.00000000       0.062
   0.50000000  0.00000000  0.00000000       0.062
  -0.25000000 -0.00000000  0.00000000       0.062
   0.00000000  0.25000000  0.00000000       0.062
   0.25000000  0.25000000  0.00000000       0.062
   0.50000000  0.25000000  0.00000000       0.062
  -0.25000000  0.25000000  0.00000000       0.062
   0.00000000  0.50000000  0.00000000       0.062
   0.25000000  0.50000000  0.00000000       0.062
   0.50000000  0.50000000  0.00000000       0.062
  -0.25000000  0.50000000  0.00000000       0.062
  -0.00000000 -0.25000000  0.00000000       0.062
   0.25000000 -0.25000000  0.00000000       0.062
   0.50000000 -0.25000000  0.00000000       0.062
  -0.25000000 -0.25000000  0.00000000       0.062
 
 position of ions in fractional coordinates (direct lattice) 
   0.00003284  0.49996180  0.16834626
   0.00003221  0.49995994  0.38572384
   0.33336542  0.16662742  0.31048675
   0.66669892  0.83329448  0.23567645
 
 position of ions in cartesian coordinates  (Angst):
  -0.89326864  1.58383024  3.36692514
  -0.89326760  1.58382437  7.71447671
   0.90862108  0.51571087  6.20973506
   0.92360008  2.61550093  4.71352901
 


--------------------------------------------------------------------------------------------------------


 k-point  1 :   0.0000 0.0000 0.0000  plane waves:    2673
 k-point  2 :   0.2500 0.0000 0.0000  plane waves:    2681
 k-point  3 :   0.5000 0.0000 0.0000  plane waves:    2698
 k-point  4 :  -0.2500-0.0000 0.0000  plane waves:    2681
 k-point  5 :   0.0000 0.2500 0.0000  plane waves:    2679
 k-point  6 :   0.2500 0.2500 0.0000  plane waves:    2705
 k-point  7 :   0.5000 0.2500 0.0000  plane waves:    2709
 k-point  8 :  -0.2500 0.2500 0.0000  plane waves:    2683
 k-point  9 :   0.0000 0.5000 0.0000  plane waves:    2682
 k-point 10 :   0.2500 0.5000 0.0000  plane waves:    2705
 k-point 11 :   0.5000 0.5000 0.0000  plane waves:    2682
 k-point 12 :  -0.2500 0.5000 0.0000  plane waves:    2705
 k-point 13 :  -0.0000-0.2500 0.0000  plane waves:    2679
 k-point 14 :   0.2500-0.2500 0.0000  plane waves:    2683
 k-point 15 :   0.5000-0.2500 0.0000  plane waves:    2709
 k-point 16 :  -0.2500-0.2500 0.0000  plane waves:    2705

 maximum and minimum number of plane-waves per node :      2709     2673

 maximum number of plane-waves:      2709
 maximum index in each direction: 
   IXMAX=    5   IYMAX=    5   IZMAX=   28
   IXMIN=   -5   IYMIN=   -5   IZMIN=  -28


 serial   3D FFT for wavefunctions
 parallel 3D FFT for charge:
    minimum data exchange during FFTs selected (reduces bandwidth)


 total amount of memory used by VASP MPI-rank0    81926. kBytes
=======================================================================

   base      :      30000. kBytes
   nonl-proj :      18904. kBytes
   fftplans  :       8017. kBytes
   grid      :      17149. kBytes
   one-center:         62. kBytes
   wavefun   :       7794. kBytes
 
     INWAV:  cpu time    0.0000: real time    0.0001
 Broyden mixing: mesh for mixing (old mesh)
   NGX = 11   NGY = 11   NGZ = 57
  (NGX  = 40   NGY  = 48   NGZ  =240)
  gives a total of   6897 points

 initial charge density was supplied:
 charge density of overlapping atoms calculated
 number of electron      34.0000000 magnetization 
 keeping initial charge density in first step


--------------------------------------------------------------------------------------------------------


 Maximum index for augmentation-charges         7426 (set IRDMAX)


--------------------------------------------------------------------------------------------------------


 First call to EWALD:  gamma=   0.290
 Maximum number of real-space cells 5x 5x 1
 Maximum number of reciprocal cells 2x 2x 8

    FEWALD:  cpu time    0.0010: real time    0.0009


--------------------------------------- Iteration      1(   1)  ---------------------------------------


    POTLOK:  cpu time    0.2033: real time    0.2034
    SETDIJ:  cpu time    0.0136: real time    0.0136
     EDDAV:  cpu time    0.6123: real time    0.6124
       DOS:  cpu time    0.0003: real time    0.0003
    --------------------------------------------
      LOOP:  cpu time    0.8296: real time    0.8298

 eigenvalue-minimisations  :   720
 total energy-change (2. order) : 0.2216885E+03  (-0.1016287E+04)
 number of electron      34.0000000 magnetization 
 augmentation part       34.0000000 magnetization 

 DIPCOR: dipole corrections for dipol
 direction  3 min pos   183,
 dipolmoment           0.000000      0.000000     -0.000023 electrons x Angstroem
 Tr[quadrupol]       -79.039139

 energy correction for charged system         0.000000 eV
 dipol+quadrupol energy correction           -0.000000 eV
 added-field ion interaction          0.000201 eV  (added to PSCEN)


 Free energy of the ion-electron system (eV)
  ---------------------------------------------------
  alpha Z        PSCENC =        42.57675804
  Ewald energy   TEWEN  =      5990.65653386
  -Hartree energ DENC   =     -8180.46966913
  -exchange      EXHF   =         0.00000000
  -V(xc)+E(xc)   XCENC  =        37.21646279
  PAW double counting   =      2012.60260865    -1949.97488812
  entropy T*S    EENTRO =        -0.01885644
  eigenvalues    EBANDS =        32.79494684
  atomic energy  EATOM  =      2236.30457717
  Solvation  Ediel_sol  =         0.00000000
  ---------------------------------------------------
  free energy    TOTEN  =       221.68847365 eV

  energy without entropy =      221.70733009  energy(sigma->0) =      221.69790187


--------------------------------------------------------------------------------------------------------




--------------------------------------- Iteration      1(   2)  ---------------------------------------


     EDDAV:  cpu time    0.8339: real time    0.8348
       DOS:  cpu time    0.0002: real time    0.0002
    --------------------------------------------
      LOOP:  cpu time    0.8342: real time    0.8350

 eigenvalue-minimisations  :  1062
 total energy-change (2. order) :-0.2198366E+03  (-0.2110488E+03)
 number of electron      34.0000000 magnetization 
 augmentation part       34.0000000 magnetization 

 DIPCOR: dipole corrections for dipol
 direction  3 min pos   183,
 dipolmoment           0.000000      0.000000     -0.000023 electrons x Angstroem
 Tr[quadrupol]       -79.039139

 energy correction for charged system         0.000000 eV
 dipol+quadrupol energy correction           -0.000000 eV
 added-field ion interaction          0.000201 eV  (added to PSCEN)


 Free energy of the ion-electron system (eV)
  ---------------------------------------------------
  alpha Z        PSCENC =        42.57675804
  Ewald energy   TEWEN  =      5990.65653386
  -Hartree energ DENC   =     -8180.46966913
  -exchange      EXHF   =         0.00000000
  -V(xc)+E(xc)   XCENC  =        37.21646279
  PAW double counting   =      2012.60260865    -1949.97488812
  entropy T*S    EENTRO =        -0.00000344
  eigenvalues    EBANDS =      -187.06052432
  atomic energy  EATOM  =      2236.30457717
  Solvation  Ediel_sol  =         0.00000000
  ---------------------------------------------------
  free energy    TOTEN  =         1.85185549 eV

  energy without entropy =        1.85185893  energy(sigma->0) =        1.85185721


--------------------------------------------------------------------------------------------------------




--------------------------------------- Iteration      1(   3)  ---------------------------------------


     EDDAV:  cpu time    0.7131: real time    0.7136
       DOS:  cpu time    0.0002: real time    0.0002
    --------------------------------------------
      LOOP:  cpu time    0.7133: real time    0.7138

 eigenvalue-minimisations  :   856
 total energy-change (2. order) :-0.1890904E+02  (-0.1866448E+02)
 number of electron      34.0000000 magnetization 
 augmentation part       34.0000000 magnetization 

 DIPCOR: dipole corrections for dipol
 direction  3 min pos   183,
 dipolmoment           0.000000      0.000000     -0.000023 electrons x Angstroem
 Tr[quadrupol]       -79.039139

 energy correction for charged system         0.000000 eV
 dipol+quadrupol energy correction           -0.000000 eV
 added-field ion interaction          0.000201 eV  (added to PSCEN)


 Free energy of the ion-electron system (eV)
  ---------------------------------------------------
  alpha Z        PSCENC =        42.57675804
  Ewald energy   TEWEN  =      5990.65653386
  -Hartree energ DENC   =     -8180.46966913
  -exchange      EXHF   =         0.00000000
  -V(xc)+E(xc)   XCENC  =        37.21646279
  PAW double counting   =      2012.60260865    -1949.97488812
  entropy T*S    EENTRO =        -0.00000000
  eigenvalues    EBANDS =      -205.96957080
  atomic energy  EATOM  =      2236.30457717
  Solvation  Ediel_sol  =         0.00000000
  ---------------------------------------------------
  free energy    TOTEN  =       -17.05718755 eV

  energy without entropy =      -17.05718755  energy(sigma->0) =      -17.05718755


--------------------------------------------------------------------------------------------------------




--------------------------------------- Iteration      1(   4)  ---------------------------------------


     EDDAV:  cpu time    0.7001: real time    0.7003
       DOS:  cpu time    0.0002: real time    0.0002
    --------------------------------------------
      LOOP:  cpu time    0.7003: real time    0.7006

 eigenvalue-minimisations  :   876
 total energy-change (2. order) :-0.3908038E+00  (-0.3899955E+00)
 number of electron      34.0000000 magnetization 
 augmentation part       34.0000000 magnetization 

 DIPCOR: dipole corrections for dipol
 direction  3 min pos   183,
 dipolmoment           0.000000      0.000000     -0.000023 electrons x Angstroem
 Tr[quadrupol]       -79.039139

 energy correction for charged system         0.000000 eV
 dipol+quadrupol energy correction           -0.000000 eV
 added-field ion interaction          0.000201 eV  (added to PSCEN)


 Free energy of the ion-electron system (eV)
  ---------------------------------------------------
  alpha Z        PSCENC =        42.57675804
  Ewald energy   TEWEN  =      5990.65653386
  -Hartree energ DENC   =     -8180.46966913
  -exchange      EXHF   =         0.00000000
  -V(xc)+E(xc)   XCENC  =        37.21646279
  PAW double counting   =      2012.60260865    -1949.97488812
  entropy T*S    EENTRO =        -0.00000000
  eigenvalues    EBANDS =      -206.36037456
  atomic energy  EATOM  =      2236.30457717
  Solvation  Ediel_sol  =         0.00000000
  ---------------------------------------------------
  free energy    TOTEN  =       -17.44799131 eV

  energy without entropy =      -17.44799131  energy(sigma->0) =      -17.44799131


--------------------------------------------------------------------------------------------------------




--------------------------------------- Iteration      1(   5)  ---------------------------------------


     EDDAV:  cpu time    0.7002: real time    0.7010
       DOS:  cpu time    0.0002: real time    0.0002
    CHARGE:  cpu time    0.0700: real time    0.0700
    MIXING:  cpu time    0.0065: real time    0.0065
    --------------------------------------------
      LOOP:  cpu time    0.7768: real time    0.7777

 eigenvalue-minimisations  :   850
 total energy-change (2. order) :-0.9804980E-02  (-0.9803795E-02)
 number of electron      34.0000000 magnetization 
 augmentation part        3.4297619 magnetization 

 DIPCOR: dipole corrections for dipol
 direction  3 min pos   183,
 dipolmoment           0.000000      0.000000     -0.000023 electrons x Angstroem
 Tr[quadrupol]       -79.039139

 energy correction for charged system         0.000000 eV
 dipol+quadrupol energy correction           -0.000000 eV
 added-field ion interaction          0.000201 eV  (added to PSCEN)


 Broyden mixing:
  rms(total) = 0.15969E+01    rms(broyden)= 0.15967E+01
  rms(prec ) = 0.16204E+01
  weight for this iteration     100.00

 Free energy of the ion-electron system (eV)
  ---------------------------------------------------
  alpha Z        PSCENC =        42.57675804
  Ewald energy   TEWEN  =      5990.65653386
  -Hartree energ DENC   =     -8180.46966913
  -exchange      EXHF   =         0.00000000
  -V(xc)+E(xc)   XCENC  =        37.21646279
  PAW double counting   =      2012.60260865    -1949.97488812
  entropy T*S    EENTRO =        -0.00000000
  eigenvalues    EBANDS =      -206.37017954
  atomic energy  EATOM  =      2236.30457717
  Solvation  Ediel_sol  =         0.00000000
  ---------------------------------------------------
  free energy    TOTEN  =       -17.45779629 eV

  energy without entropy =      -17.45779629  energy(sigma->0) =      -17.45779629


--------------------------------------------------------------------------------------------------------




--------------------------------------- Iteration      1(   6)  ---------------------------------------


    POTLOK:  cpu time    0.1943: real time    0.1943
    SETDIJ:  cpu time    0.0053: real time    0.0053
     EDDAV:  cpu time    0.7059: real time    0.7060
       DOS:  cpu time    0.0002: real time    0.0002
    CHARGE:  cpu time    0.0713: real time    0.0713
    MIXING:  cpu time    0.0066: real time    0.0066
    --------------------------------------------
      LOOP:  cpu time    0.9836: real time    0.9837

 eigenvalue-minimisations  :   872
 total energy-change (2. order) : 0.8506737E+00  (-0.2296204E+00)
 number of electron      34.0000000 magnetization 
 augmentation part        3.8477219 magnetization 

 DIPCOR: dipole corrections for dipol
 direction  3 min pos   185,
 dipolmoment           0.000000      0.000000     -0.034257 electrons x Angstroem
 Tr[quadrupol]       -78.985564

 energy correction for charged system         0.000000 eV
 dipol+quadrupol energy correction           -0.000466 eV
 added-field ion interaction          0.148713 eV  (added to PSCEN)


 Broyden mixing:
  rms(total) = 0.89903E+00    rms(broyden)= 0.89901E+00
  rms(prec ) = 0.90362E+00
  weight for this iteration     100.00

 eigenvalues of (default mixing * dielectric matrix)
  average eigenvalue GAMMA=   1.8744
  1.8744

 Free energy of the ion-electron system (eV)
  ---------------------------------------------------
  alpha Z        PSCENC =        42.72480488
  Ewald energy   TEWEN  =      5990.65653386
  -Hartree energ DENC   =     -8165.17792094
  -exchange      EXHF   =         0.00000000
  -V(xc)+E(xc)   XCENC  =        36.92521644
  PAW double counting   =      2284.60021404    -2225.07671135
  entropy T*S    EENTRO =        -0.00000000
  eigenvalues    EBANDS =      -217.56383664
  atomic energy  EATOM  =      2236.30457717
  Solvation  Ediel_sol  =         0.00000000
  ---------------------------------------------------
  free energy    TOTEN  =       -16.60712254 eV

  energy without entropy =      -16.60712254  energy(sigma->0) =      -16.60712254


--------------------------------------------------------------------------------------------------------




--------------------------------------- Iteration      1(   7)  ---------------------------------------


    POTLOK:  cpu time    0.1982: real time    0.1982
    SETDIJ:  cpu time    0.0053: real time    0.0053
     EDDAV:  cpu time    0.6609: real time    0.6611
       DOS:  cpu time    0.0002: real time    0.0002
    CHARGE:  cpu time    0.0710: real time    0.0710
    MIXING:  cpu time    0.0066: real time    0.0066
    --------------------------------------------
      LOOP:  cpu time    0.9422: real time    0.9425

 eigenvalue-minimisations  :   800
 total energy-change (2. order) :-0.6385659E-02  (-0.5674128E-01)
 number of electron      34.0000000 magnetization 
 augmentation part        3.8181542 magnetization 

 DIPCOR: dipole corrections for dipol
 direction  3 min pos   179,
 dipolmoment           0.000000      0.000000     -0.004522 electrons x Angstroem
 Tr[quadrupol]       -79.230650

 energy correction for charged system         0.000000 eV
 dipol+quadrupol energy correction           -0.000008 eV
 added-field ion interaction          0.080654 eV  (added to PSCEN)


 Broyden mixing:
  rms(total) = 0.31453E+00    rms(broyden)= 0.31451E+00
  rms(prec ) = 0.33639E+00
  weight for this iteration     100.00

 eigenvalues of (default mixing * dielectric matrix)
  average eigenvalue GAMMA=   1.5662
  0.8278  2.3046

 Free energy of the ion-electron system (eV)
  ---------------------------------------------------
  alpha Z        PSCENC =        42.65720337
  Ewald energy   TEWEN  =      5990.65653386
  -Hartree energ DENC   =     -8169.93729935
  -exchange      EXHF   =         0.00000000
  -V(xc)+E(xc)   XCENC  =        36.83676959
  PAW double counting   =      2614.37558475    -2557.02452559
  entropy T*S    EENTRO =        -0.00000000
  eigenvalues    EBANDS =      -210.48235199
  atomic energy  EATOM  =      2236.30457717
  Solvation  Ediel_sol  =         0.00000000
  ---------------------------------------------------
  free energy    TOTEN  =       -16.61350820 eV

  energy without entropy =      -16.61350820  energy(sigma->0) =      -16.61350820


--------------------------------------------------------------------------------------------------------




--------------------------------------- Iteration      1(   8)  ---------------------------------------


    POTLOK:  cpu time    0.1973: real time    0.1973
    SETDIJ:  cpu time    0.0053: real time    0.0053
     EDDAV:  cpu time    0.6834: real time    0.6834
       DOS:  cpu time    0.0002: real time    0.0002
    CHARGE:  cpu time    0.0704: real time    0.0704
    MIXING:  cpu time    0.0067: real time    0.0067
    --------------------------------------------
      LOOP:  cpu time    0.9633: real time    0.9634

 eigenvalue-minimisations  :   836
 total energy-change (2. order) :-0.5384990E-01  (-0.4333825E-01)
 number of electron      34.0000000 magnetization 
 augmentation part        3.8238653 magnetization 

 DIPCOR: dipole corrections for dipol
 direction  3 min pos   187,
 dipolmoment           0.000000      0.000000     -0.072507 electrons x Angstroem
 Tr[quadrupol]       -79.235511

 energy correction for charged system         0.000000 eV
 dipol+quadrupol energy correction           -0.002086 eV
 added-field ion interaction         -0.011369 eV  (added to PSCEN)


 Broyden mixing:
  rms(total) = 0.25311E+00    rms(broyden)= 0.25306E+00
  rms(prec ) = 0.30737E+00
  weight for this iteration     100.00

 eigenvalues of (default mixing * dielectric matrix)
  average eigenvalue GAMMA=   1.2639
  2.4350  0.9507  0.4059

 Free energy of the ion-electron system (eV)
  ---------------------------------------------------
  alpha Z        PSCENC =        42.56310155
  Ewald energy   TEWEN  =      5990.65653386
  -Hartree energ DENC   =     -8169.28930322
  -exchange      EXHF   =         0.00000000
  -V(xc)+E(xc)   XCENC  =        36.85349988
  PAW double counting   =      2729.29802176    -2672.60602161
  entropy T*S    EENTRO =        -0.00000000
  eigenvalues    EBANDS =      -210.44776749
  atomic energy  EATOM  =      2236.30457717
  Solvation  Ediel_sol  =         0.00000000
  ---------------------------------------------------
  free energy    TOTEN  =       -16.66735810 eV

  energy without entropy =      -16.66735810  energy(sigma->0) =      -16.66735810


--------------------------------------------------------------------------------------------------------




--------------------------------------- Iteration      1(   9)  ---------------------------------------


    POTLOK:  cpu time    0.1952: real time    0.1953
    SETDIJ:  cpu time    0.0053: real time    0.0053
     EDDAV:  cpu time    0.6641: real time    0.6642
       DOS:  cpu time    0.0002: real time    0.0002
    CHARGE:  cpu time    0.0707: real time    0.0707
    MIXING:  cpu time    0.0069: real time    0.0069
    --------------------------------------------
      LOOP:  cpu time    0.9425: real time    0.9426

 eigenvalue-minimisations  :   806
 total energy-change (2. order) : 0.1099231E+00  (-0.1572661E-01)
 number of electron      34.0000000 magnetization 
 augmentation part        3.8514009 magnetization 

 DIPCOR: dipole corrections for dipol
 direction  3 min pos   194,
 dipolmoment           0.000000      0.000000     -0.033905 electrons x Angstroem
 Tr[quadrupol]       -79.182240

 energy correction for charged system         0.000000 eV
 dipol+quadrupol energy correction           -0.000456 eV
 added-field ion interaction         -0.539069 eV  (added to PSCEN)


 Broyden mixing:
  rms(total) = 0.42050E-01    rms(broyden)= 0.41970E-01
  rms(prec ) = 0.44253E-01
  weight for this iteration     100.00

 eigenvalues of (default mixing * dielectric matrix)
  average eigenvalue GAMMA=   1.2952
  2.4697  1.4222  0.8940  0.3950

 Free energy of the ion-electron system (eV)
  ---------------------------------------------------
  alpha Z        PSCENC =        42.03703202
  Ewald energy   TEWEN  =      5990.65653386
  -Hartree energ DENC   =     -8168.29147818
  -exchange      EXHF   =         0.00000000
  -V(xc)+E(xc)   XCENC  =        36.86188411
  PAW double counting   =      2754.62828424    -2698.06022678
  entropy T*S    EENTRO =        -0.00000000
  eigenvalues    EBANDS =      -210.69404143
  atomic energy  EATOM  =      2236.30457717
  Solvation  Ediel_sol  =         0.00000000
  ---------------------------------------------------
  free energy    TOTEN  =       -16.55743500 eV

  energy without entropy =      -16.55743500  energy(sigma->0) =      -16.55743500


--------------------------------------------------------------------------------------------------------




--------------------------------------- Iteration      1(  10)  ---------------------------------------


    POTLOK:  cpu time    0.1971: real time    0.1972
    SETDIJ:  cpu time    0.0055: real time    0.0055
     EDDAV:  cpu time    0.6384: real time    0.6384
       DOS:  cpu time    0.0002: real time    0.0002
    CHARGE:  cpu time    0.0709: real time    0.0709
    MIXING:  cpu time    0.0070: real time    0.0070
    --------------------------------------------
      LOOP:  cpu time    0.9191: real time    0.9191

 eigenvalue-minimisations  :   758
 total energy-change (2. order) : 0.7693449E-03  (-0.2550695E-02)
 number of electron      34.0000000 magnetization 
 augmentation part        3.8498595 magnetization 

 DIPCOR: dipole corrections for dipol
 direction  3 min pos   196,
 dipolmoment           0.000000      0.000000     -0.039713 electrons x Angstroem
 Tr[quadrupol]       -79.157748

 energy correction for charged system         0.000000 eV
 dipol+quadrupol energy correction           -0.000626 eV
 added-field ion interaction         -0.810030 eV  (added to PSCEN)


 Broyden mixing:
  rms(total) = 0.13612E-01    rms(broyden)= 0.13609E-01
  rms(prec ) = 0.15572E-01
  weight for this iteration     100.00

 eigenvalues of (default mixing * dielectric matrix)
  average eigenvalue GAMMA=   1.2220
  2.4723  1.4438  0.9040  0.9040  0.3859

 Free energy of the ion-electron system (eV)
  ---------------------------------------------------
  alpha Z        PSCENC =        41.76590122
  Ewald energy   TEWEN  =      5990.65653386
  -Hartree energ DENC   =     -8168.52342698
  -exchange      EXHF   =         0.00000000
  -V(xc)+E(xc)   XCENC  =        36.89655255
  PAW double counting   =      2761.28750279    -2704.67319682
  entropy T*S    EENTRO =        -0.00000000
  eigenvalues    EBANDS =      -210.27110944
  atomic energy  EATOM  =      2236.30457717
  Solvation  Ediel_sol  =         0.00000000
  ---------------------------------------------------
  free energy    TOTEN  =       -16.55666565 eV

  energy without entropy =      -16.55666565  energy(sigma->0) =      -16.55666565


--------------------------------------------------------------------------------------------------------




--------------------------------------- Iteration      1(  11)  ---------------------------------------


    POTLOK:  cpu time    0.1984: real time    0.1985
    SETDIJ:  cpu time    0.0052: real time    0.0052
     EDDAV:  cpu time    0.6700: real time    0.6703
       DOS:  cpu time    0.0002: real time    0.0002
    CHARGE:  cpu time    0.0712: real time    0.0712
    MIXING:  cpu time    0.0071: real time    0.0071
    --------------------------------------------
      LOOP:  cpu time    0.9521: real time    0.9525

 eigenvalue-minimisations  :   806
 total energy-change (2. order) : 0.4813658E-04  (-0.1963432E-03)
 number of electron      34.0000000 magnetization 
 augmentation part        3.8471208 magnetization 

 DIPCOR: dipole corrections for dipol
 direction  3 min pos   198,
 dipolmoment           0.000000      0.000000     -0.038912 electrons x Angstroem
 Tr[quadrupol]       -79.156081

 energy correction for charged system         0.000000 eV
 dipol+quadrupol energy correction           -0.000601 eV
 added-field ion interaction         -0.968714 eV  (added to PSCEN)


 Broyden mixing:
  rms(total) = 0.83243E-02    rms(broyden)= 0.83223E-02
  rms(prec ) = 0.86478E-02
  weight for this iteration     100.00

 eigenvalues of (default mixing * dielectric matrix)
  average eigenvalue GAMMA=   1.2426
  2.3952  1.9705  0.3862  0.8634  0.8634  0.9772

 Free energy of the ion-electron system (eV)
  ---------------------------------------------------
  alpha Z        PSCENC =        41.60724224
  Ewald energy   TEWEN  =      5990.65653386
  -Hartree energ DENC   =     -8168.90387621
  -exchange      EXHF   =         0.00000000
  -V(xc)+E(xc)   XCENC  =        36.90288976
  PAW double counting   =      2760.44321222    -2703.82063958
  entropy T*S    EENTRO =        -0.00000000
  eigenvalues    EBANDS =      -209.74655697
  atomic energy  EATOM  =      2236.30457717
  Solvation  Ediel_sol  =         0.00000000
  ---------------------------------------------------
  free energy    TOTEN  =       -16.55661752 eV

  energy without entropy =      -16.55661752  energy(sigma->0) =      -16.55661752


--------------------------------------------------------------------------------------------------------




--------------------------------------- Iteration      1(  12)  ---------------------------------------


    POTLOK:  cpu time    0.1976: real time    0.1976
    SETDIJ:  cpu time    0.0057: real time    0.0057
     EDDAV:  cpu time    0.7000: real time    0.7000
       DOS:  cpu time    0.0002: real time    0.0002
    --------------------------------------------
      LOOP:  cpu time    0.9034: real time    0.9035

 eigenvalue-minimisations  :   850
 total energy-change (2. order) :-0.2772480E-04  (-0.1727975E-04)
 number of electron      34.0000000 magnetization 
 augmentation part        3.8471208 magnetization 

 DIPCOR: dipole corrections for dipol
 direction  3 min pos   199,
 dipolmoment           0.000000      0.000000     -0.038493 electrons x Angstroem
 Tr[quadrupol]       -79.155463

 energy correction for charged system         0.000000 eV
 dipol+quadrupol energy correction           -0.000588 eV
 added-field ion interaction         -1.044852 eV  (added to PSCEN)


 Free energy of the ion-electron system (eV)
  ---------------------------------------------------
  alpha Z        PSCENC =        41.53111756
  Ewald energy   TEWEN  =      5990.65653386
  -Hartree energ DENC   =     -8169.14175809
  -exchange      EXHF   =         0.00000000
  -V(xc)+E(xc)   XCENC  =        36.90746851
  PAW double counting   =      2758.08630958    -2701.45236425
  entropy T*S    EENTRO =        -0.00000000
  eigenvalues    EBANDS =      -209.44852959
  atomic energy  EATOM  =      2236.30457717
  Solvation  Ediel_sol  =         0.00000000
  ---------------------------------------------------
  free energy    TOTEN  =       -16.55664524 eV

  energy without entropy =      -16.55664524  energy(sigma->0) =      -16.55664524


--------------------------------------------------------------------------------------------------------




 average (electrostatic) potential at core
  the test charge radii are     0.9406  1.0178  1.2059
  (the norm of the test charge is              1.0000)
       1 -97.7771       2 -67.9260       3 -75.0938       4 -75.0460
 
 
 
 E-fermi :  -1.4290     XC(G=0):  -4.3560     alpha+bet : -3.9742


 k-point     1 :       0.0000    0.0000    0.0000
  band No.  band energies     occupation 
      1     -17.6284      2.00000
      2     -17.4902      2.00000
      3      -8.1235      2.00000
      4      -6.8785      2.00000
      5      -6.8776      2.00000
      6      -6.8758      2.00000
      7      -5.8642      2.00000
      8      -5.8291      2.00000
      9      -4.4432      2.00000
     10      -4.4280      2.00000
     11      -3.8093      2.00000
     12      -2.8397      2.00000
     13      -2.8184      2.00000
     14      -2.7337      2.00000
     15      -2.1399      2.00000
     16      -2.1329      2.00000
     17      -2.0628      2.00000
     18      -0.2536      0.00000
     19      -0.2263      0.00000
     20       2.1706      0.00000
     21       3.2210      0.00000
     22       3.8241      0.00000

 k-point     2 :       0.2500    0.0000    0.0000
  band No.  band energies     occupation 
      1     -17.3696      2.00000
      2     -17.2701      2.00000
      3      -7.7415      2.00000
      4      -7.0624      2.00000
      5      -6.7491      2.00000
      6      -6.6312      2.00000
      7      -6.2832      2.00000
      8      -5.5135      2.00000
      9      -5.1555      2.00000
     10      -4.7235      2.00000
     11      -4.4450      2.00000
     12      -3.0925      2.00000
     13      -2.9096      2.00000
     14      -2.8870      2.00000
     15      -2.2523      2.00000
     16      -2.2182      2.00000
     17      -1.9471      2.00000
     18      -0.1753      0.00000
     19       0.3307      0.00000
     20       3.6428      0.00000
     21       4.0018      0.00000
     22       4.5015      0.00000

 k-point     3 :       0.5000    0.0000    0.0000
  band No.  band energies     occupation 
      1     -17.1398      2.00000
      2     -16.9805      2.00000
      3      -7.8550      2.00000
      4      -7.5658      2.00000
      5      -6.5732      2.00000
      6      -6.5559      2.00000
      7      -6.1343      2.00000
      8      -5.8214      2.00000
      9      -4.7393      2.00000
     10      -4.5267      2.00000
     11      -3.5014      2.00000
     12      -3.3113      2.00000
     13      -3.2380      2.00000
     14      -2.9714      2.00000
     15      -2.9069      2.00000
     16      -2.8851      2.00000
     17      -2.4457      2.00000
     18      -0.1922      0.00000
     19       1.2944      0.00000
     20       2.3720      0.00000
     21       4.5578      0.00000
     22       4.8386      0.00000

 k-point     4 :      -0.2500   -0.0000    0.0000
  band No.  band energies     occupation 
      1     -17.3696      2.00000
      2     -17.2701      2.00000
      3      -7.7415      2.00000
      4      -7.0624      2.00000
      5      -6.7491      2.00000
      6      -6.6312      2.00000
      7      -6.2832      2.00000
      8      -5.5135      2.00000
      9      -5.1555      2.00000
     10      -4.7235      2.00000
     11      -4.4450      2.00000
     12      -3.0925      2.00000
     13      -2.9096      2.00000
     14      -2.8870      2.00000
     15      -2.2523      2.00000
     16      -2.2182      2.00000
     17      -1.9471      2.00000
     18      -0.1753      0.00000
     19       0.3307      0.00000
     20       3.6428      0.00000
     21       4.0018      0.00000
     22       4.5015      0.00000

 k-point     5 :       0.0000    0.2500    0.0000
  band No.  band energies     occupation 
      1     -17.3738      2.00000
      2     -17.2748      2.00000
      3      -7.7518      2.00000
      4      -7.0600      2.00000
      5      -6.7496      2.00000
      6      -6.6396      2.00000
      7      -6.2849      2.00000
      8      -5.4909      2.00000
      9      -5.1483      2.00000
     10      -4.6932      2.00000
     11      -4.4680      2.00000
     12      -3.0979      2.00000
     13      -2.8984      2.00000
     14      -2.8878      2.00000
     15      -2.2562      2.00000
     16      -2.2230      2.00000
     17      -1.9545      2.00000
     18      -0.1543      0.00000
     19       0.3039      0.00000
     20       3.6245      0.00000
     21       3.9965      0.00000
     22       4.4946      0.00000

 k-point     6 :       0.2500    0.2500    0.0000
  band No.  band energies     occupation 
      1     -17.1466      2.00000
      2     -16.9887      2.00000
      3      -7.5407      2.00000
      4      -7.0852      2.00000
      5      -7.0122      2.00000
      6      -6.3143      2.00000
      7      -6.2078      2.00000
      8      -5.8764      2.00000
      9      -5.3770      2.00000
     10      -5.1427      2.00000
     11      -3.8066      2.00000
     12      -3.4110      2.00000
     13      -3.1785      2.00000
     14      -2.9647      2.00000
     15      -2.9079      2.00000
     16      -2.3123      2.00000
     17      -1.9954      2.00000
     18      -0.2317      0.00000
     19       1.3445      0.00000
     20       3.1119      0.00000
     21       4.6176      0.00000
     22       5.5733      0.00000

 k-point     7 :       0.5000    0.2500    0.0000
  band No.  band energies     occupation 
      1     -17.1446      2.00000
      2     -16.9858      2.00000
      3      -7.5485      2.00000
      4      -7.0942      2.00000
      5      -7.0036      2.00000
      6      -6.3172      2.00000
      7      -6.2104      2.00000
      8      -5.8718      2.00000
      9      -5.3732      2.00000
     10      -5.1395      2.00000
     11      -3.8043      2.00000
     12      -3.4161      2.00000
     13      -3.1649      2.00000
     14      -2.9654      2.00000
     15      -2.9047      2.00000
     16      -2.3187      2.00000
     17      -1.9953      2.00000
     18      -0.2361      0.00000
     19       1.3598      0.00000
     20       3.1044      0.00000
     21       4.6118      0.00000
     22       5.5689      0.00000

 k-point     8 :      -0.2500    0.2500    0.0000
  band No.  band energies     occupation 
      1     -17.3717      2.00000
      2     -17.2725      2.00000
      3      -7.7467      2.00000
      4      -7.0612      2.00000
      5      -6.7495      2.00000
      6      -6.6353      2.00000
      7      -6.2841      2.00000
      8      -5.5022      2.00000
      9      -5.1521      2.00000
     10      -4.7079      2.00000
     11      -4.4566      2.00000
     12      -3.0953      2.00000
     13      -2.9064      2.00000
     14      -2.8850      2.00000
     15      -2.2544      2.00000
     16      -2.2204      2.00000
     17      -1.9509      2.00000
     18      -0.1651      0.00000
     19       0.3176      0.00000
     20       3.6335      0.00000
     21       3.9991      0.00000
     22       4.4980      0.00000

 k-point     9 :       0.0000    0.5000    0.0000
  band No.  band energies     occupation 
      1     -17.1476      2.00000
      2     -16.9918      2.00000
      3      -7.8646      2.00000
      4      -7.5651      2.00000
      5      -6.5716      2.00000
      6      -6.5464      2.00000
      7      -6.1398      2.00000
      8      -5.7890      2.00000
      9      -4.7551      2.00000
     10      -4.5252      2.00000
     11      -3.4809      2.00000
     12      -3.3210      2.00000
     13      -3.2165      2.00000
     14      -2.9701      2.00000
     15      -2.9236      2.00000
     16      -2.9199      2.00000
     17      -2.4470      2.00000
     18      -0.1708      0.00000
     19       1.2334      0.00000
     20       2.3972      0.00000
     21       4.5553      0.00000
     22       4.8745      0.00000

 k-point    10 :       0.2500    0.5000    0.0000
  band No.  band energies     occupation 
      1     -17.1487      2.00000
      2     -16.9916      2.00000
      3      -7.5327      2.00000
      4      -7.0761      2.00000
      5      -7.0213      2.00000
      6      -6.3114      2.00000
      7      -6.2054      2.00000
      8      -5.8808      2.00000
      9      -5.3805      2.00000
     10      -5.1466      2.00000
     11      -3.8092      2.00000
     12      -3.4055      2.00000
     13      -3.1906      2.00000
     14      -2.9673      2.00000
     15      -2.9095      2.00000
     16      -2.3057      2.00000
     17      -1.9957      2.00000
     18      -0.2270      0.00000
     19       1.3290      0.00000
     20       3.1194      0.00000
     21       4.6235      0.00000
     22       5.5779      0.00000

 k-point    11 :       0.5000    0.5000    0.0000
  band No.  band energies     occupation 
      1     -17.1437      2.00000
      2     -16.9862      2.00000
      3      -7.8600      2.00000
      4      -7.5654      2.00000
      5      -6.5725      2.00000
      6      -6.5511      2.00000
      7      -6.1369      2.00000
      8      -5.8050      2.00000
      9      -4.7472      2.00000
     10      -4.5260      2.00000
     11      -3.4915      2.00000
     12      -3.3160      2.00000
     13      -3.2278      2.00000
     14      -2.9684      2.00000
     15      -2.9160      2.00000
     16      -2.9033      2.00000
     17      -2.4462      2.00000
     18      -0.1814      0.00000
     19       1.2634      0.00000
     20       2.3851      0.00000
     21       4.5573      0.00000
     22       4.8563      0.00000

 k-point    12 :      -0.2500    0.5000    0.0000
  band No.  band energies     occupation 
      1     -17.1487      2.00000
      2     -16.9916      2.00000
      3      -7.5327      2.00000
      4      -7.0761      2.00000
      5      -7.0213      2.00000
      6      -6.3114      2.00000
      7      -6.2054      2.00000
      8      -5.8808      2.00000
      9      -5.3805      2.00000
     10      -5.1466      2.00000
     11      -3.8092      2.00000
     12      -3.4055      2.00000
     13      -3.1906      2.00000
     14      -2.9673      2.00000
     15      -2.9095      2.00000
     16      -2.3057      2.00000
     17      -1.9957      2.00000
     18      -0.2270      0.00000
     19       1.3290      0.00000
     20       3.1194      0.00000
     21       4.6235      0.00000
     22       5.5780      0.00000

 k-point    13 :      -0.0000   -0.2500    0.0000
  band No.  band energies     occupation 
      1     -17.3738      2.00000
      2     -17.2748      2.00000
      3      -7.7518      2.00000
      4      -7.0600      2.00000
      5      -6.7496      2.00000
      6      -6.6396      2.00000
      7      -6.2849      2.00000
      8      -5.4909      2.00000
      9      -5.1483      2.00000
     10      -4.6932      2.00000
     11      -4.4680      2.00000
     12      -3.0979      2.00000
     13      -2.8984      2.00000
     14      -2.8878      2.00000
     15      -2.2562      2.00000
     16      -2.2230      2.00000
     17      -1.9545      2.00000
     18      -0.1543      0.00000
     19       0.3039      0.00000
     20       3.6245      0.00000
     21       3.9965      0.00000
     22       4.4946      0.00000

 k-point    14 :       0.2500   -0.2500    0.0000
  band No.  band energies     occupation 
      1     -17.3717      2.00000
      2     -17.2725      2.00000
      3      -7.7467      2.00000
      4      -7.0612      2.00000
      5      -6.7495      2.00000
      6      -6.6353      2.00000
      7      -6.2841      2.00000
      8      -5.5022      2.00000
      9      -5.1521      2.00000
     10      -4.7079      2.00000
     11      -4.4566      2.00000
     12      -3.0953      2.00000
     13      -2.9064      2.00000
     14      -2.8850      2.00000
     15      -2.2544      2.00000
     16      -2.2204      2.00000
     17      -1.9509      2.00000
     18      -0.1651      0.00000
     19       0.3176      0.00000
     20       3.6335      0.00000
     21       3.9991      0.00000
     22       4.4980      0.00000

 k-point    15 :       0.5000   -0.2500    0.0000
  band No.  band energies     occupation 
      1     -17.1446      2.00000
      2     -16.9858      2.00000
      3      -7.5485      2.00000
      4      -7.0942      2.00000
      5      -7.0036      2.00000
      6      -6.3172      2.00000
      7      -6.2104      2.00000
      8      -5.8718      2.00000
      9      -5.3732      2.00000
     10      -5.1395      2.00000
     11      -3.8043      2.00000
     12      -3.4161      2.00000
     13      -3.1649      2.00000
     14      -2.9654      2.00000
     15      -2.9047      2.00000
     16      -2.3187      2.00000
     17      -1.9953      2.00000
     18      -0.2361      0.00000
     19       1.3598      0.00000
     20       3.1044      0.00000
     21       4.6118      0.00000
     22       5.5689      0.00000

 k-point    16 :      -0.2500   -0.2500    0.0000
  band No.  band energies     occupation 
      1     -17.1466      2.00000
      2     -16.9887      2.00000
      3      -7.5407      2.00000
      4      -7.0852      2.00000
      5      -7.0122      2.00000
      6      -6.3143      2.00000
      7      -6.2078      2.00000
      8      -5.8764      2.00000
      9      -5.3770      2.00000
     10      -5.1427      2.00000
     11      -3.8066      2.00000
     12      -3.4110      2.00000
     13      -3.1785      2.00000
     14      -2.9647      2.00000
     15      -2.9079      2.00000
     16      -2.3123      2.00000
     17      -1.9954      2.00000
     18      -0.2317      0.00000
     19       1.3445      0.00000
     20       3.1119      0.00000
     21       4.6176      0.00000
     22       5.5733      0.00000


--------------------------------------------------------------------------------------------------------


 soft charge-density along one line, spin component           1
         0         1         2         3         4         5         6         7         8         9
 total charge-density along one line
 
 pseudopotential strength for first ion, spin component:           1
 49.272  51.711   0.000   0.038   0.000   0.000   0.048   0.000
 51.711  54.273   0.000   0.040   0.000   0.000   0.050   0.000
  0.000   0.000   9.299   0.000   0.000  11.526   0.000   0.000
  0.038   0.040   0.000   9.297   0.000   0.000  11.525   0.000
  0.000   0.000   0.000   0.000   9.299   0.000   0.000  11.526
  0.000   0.000  11.526   0.000   0.000  14.303   0.000   0.000
  0.048   0.050   0.000  11.525   0.000   0.000  14.301   0.000
  0.000   0.000   0.000   0.000  11.526   0.000   0.000  14.303
 total augmentation occupancy for first ion, spin component:           1
  8.376  -6.353  -0.022  -3.028  -0.013   0.010   1.264   0.006
 -6.353   6.283   0.022   2.838   0.013  -0.010  -1.251  -0.006
 -0.022   0.022   3.559   0.008   0.002  -1.046  -0.005  -0.001
 -3.028   2.838   0.008   3.356   0.005  -0.005  -0.919  -0.003
 -0.013   0.013   0.002   0.005   3.566  -0.001  -0.003  -1.049
  0.010  -0.010  -1.046  -0.005  -0.001   0.472   0.002   0.001
  1.264  -1.251  -0.005  -0.919  -0.003   0.002   0.424   0.001
  0.006  -0.006  -0.001  -0.003  -1.049   0.001   0.001   0.474


------------------------ aborting loop because EDIFF is reached ----------------------------------------


    CHARGE:  cpu time    0.0692: real time    0.0692
    FORLOC:  cpu time    0.0149: real time    0.0149
    FORNL :  cpu time    0.0868: real time    0.0868
    STRESS:  cpu time    0.4865: real time    0.4866
    FORCOR:  cpu time    0.1980: real time    0.1980
    FORHAR:  cpu time    0.0399: real time    0.0399
    MIXING:  cpu time    0.0069: real time    0.0069
    OFIELD:  cpu time    0.0000: real time    0.0000

 ---------------------------------------------------------------------------------------------

         DFTD3 V3.0 Rev 1        
 IVDW         = 11
 DF pbe       
 parameters
 VDW_S6       =    1.0000
 VDW_S8       =    0.7220
 VDW_SR       =    1.2170
 rs18     =    1.0000
 alpha6   =   14.0000
 alpha8   =   16.0000
 k1-k3    =   16.0000    1.3333   -4.0000
 VDW_RADIUS   =   50.2022 A
 VDW_CNRADIUS =   21.1671 A
 Edisp (eV)   -1.24025

 E6    (eV) :    -0.3589
 E8    (eV) :    -0.8813
 % E8        : 71.06
    FORVDW:  cpu time    0.0181: real time    0.0181

  FORCE on cell =-STRESS in cart. coord.  units (eV):
  Direction    XX          YY          ZZ          XY          YZ          ZX
  --------------------------------------------------------------------------------------
  Alpha Z    42.57656    42.57656    42.57656
  Ewald    7510.82469  7508.36950 -9028.53786     0.68837     3.09489     1.85667
  Hartree  7988.39976  7987.35735 -7805.18015     0.28951     1.10161     0.65897
  E(xc)    -141.09802  -141.08489  -141.54263    -0.00375     0.00223     0.00130
  Local  -16126.99786-16123.30864 16199.73736    -1.03122    -4.03283    -2.41707
  n-local   142.41791   142.14727   143.71136     0.07726     0.12192     0.07393
  augment    78.80577    78.78801    79.65551     0.00493    -0.02839    -0.01714
  Kinetic   506.28245   506.01592   509.82471     0.07507    -0.11985    -0.07173
  Fock        0.00000     0.00000     0.00000     0.00000     0.00000     0.00000
  vdW        -0.75970    -0.77454    -0.23754     0.00423    -0.00269    -0.00160
  -------------------------------------------------------------------------------------
  Total       0.45155     0.08653     0.00732     0.10439     0.13690     0.08333
  in kB       3.17346     0.60814     0.05146     0.73367     0.96210     0.58560
  external pressure =        1.28 kB  Pullay stress =        0.00 kB


 VOLUME and BASIS-vectors are now :
 -----------------------------------------------------------------------------
  energy-cutoff  :      300.00
  volume of cell :      227.98
      direct lattice vectors                 reciprocal lattice vectors
     3.618760253 -0.036443352  0.000000000     0.277916446  0.156763573  0.000000000
    -1.786911496  3.167904907  0.000000000     0.003197131  0.317469438  0.000000000
     0.000000000  0.000000000 20.000000000     0.000000000  0.000000000  0.050000000

  length of vectors
     3.618943753  3.637124440 20.000000000     0.319080506  0.317485536  0.050000000


 FORCES acting on ions
    electron-ion (+dipol)            ewald-force                    non-local-force                 convergence-correction
 -----------------------------------------------------------------------------------------------
   0.419E+00 0.698E+00 0.997E+03   -.440E+00 -.733E+00 -.100E+04   0.684E-02 0.115E-01 0.558E+01   0.274E-03 0.396E-03 -.101E+00
   -.344E+00 -.574E+00 -.101E+04   0.358E+00 0.597E+00 0.101E+04   0.329E-02 0.531E-02 -.270E+01   -.105E-03 -.172E-03 0.113E+00
   -.134E+00 -.223E+00 -.571E+03   0.128E+00 0.212E+00 0.564E+03   0.159E-01 0.270E-01 0.658E+01   0.467E-04 0.101E-04 0.162E+00
   0.472E-01 0.795E-01 0.576E+03   -.458E-01 -.765E-01 -.570E+03   -.148E-01 -.253E-01 -.647E+01   -.157E-03 -.159E-03 -.828E-01
 -----------------------------------------------------------------------------------------------
   -.113E-01 -.186E-01 -.309E+01   0.688E-14 0.136E-13 0.114E-12   0.113E-01 0.186E-01 0.300E+01   0.583E-04 0.749E-04 0.905E-01
 
 
 POSITION                                       TOTAL-FORCE (eV/Angst)
 -----------------------------------------------------------------------------------
     -0.89327      1.58383      3.36693        -0.013314     -0.021753     -0.038604
     -0.89327      1.58382      7.71448         0.016834      0.027628      0.043134
      0.90862      0.51571      6.20974         0.009774      0.016318      0.009009
      0.92360      2.61550      4.71353        -0.013294     -0.022192     -0.013539
 -----------------------------------------------------------------------------------
    total drift:                                0.000012      0.000034     -0.004332


--------------------------------------------------------------------------------------------------------



  FREE ENERGIE OF THE ION-ELECTRON SYSTEM (eV)
  ---------------------------------------------------
  free  energy   TOTEN  =       -17.79689595 eV

  energy  without entropy=      -17.79689595  energy(sigma->0) =      -17.79689595
 


--------------------------------------------------------------------------------------------------------


    POTLOK:  cpu time    0.1995: real time    0.1995


--------------------------------------------------------------------------------------------------------


 Quasi-Newton relaxation of ions (Broydens 2nd method)
  g(Force)  = 0.306E-03   g(Stress)= 0.903E-04

 Reset! Starting new Quasi-Newton update for ions 


--------------------------------------------------------------------------------------------------------


    WAVPRE:  cpu time    0.7267: real time    0.7269
    FEWALD:  cpu time    0.0002: real time    0.0002
    GENKIN:  cpu time    0.0188: real time    0.0188
    ORTHCH:  cpu time    0.0171: real time    0.0171
     LOOP+:  cpu time   12.3706: real time   12.3747


--------------------------------------- Iteration      2(   1)  ---------------------------------------


    POTLOK:  cpu time    0.1948: real time    0.1950
    SETDIJ:  cpu time    0.0090: real time    0.0090
     EDDAV:  cpu time    0.6035: real time    0.6037
       DOS:  cpu time    0.0002: real time    0.0002
    CHARGE:  cpu time    0.0701: real time    0.0701
    MIXING:  cpu time    0.0066: real time    0.0066
    --------------------------------------------
      LOOP:  cpu time    0.8844: real time    0.8847

 eigenvalue-minimisations  :   704
 total energy-change (2. order) :-0.1590082E-02  (-0.4942231E-02)
 number of electron      33.9999999 magnetization 
 augmentation part        3.8528505 magnetization 

 DIPCOR: dipole corrections for dipol
 direction  3 min pos   199,
 dipolmoment           0.000000      0.000000     -0.037874 electrons x Angstroem
 Tr[quadrupol]       -79.264536

 energy correction for charged system         0.000000 eV
 dipol+quadrupol energy correction           -0.000569 eV
 added-field ion interaction         -1.026994 eV  (added to PSCEN)


 Broyden mixing:
  rms(total) = 0.14717E-01    rms(broyden)= 0.14713E-01
  rms(prec ) = 0.15411E-01
  weight for this iteration     100.00

 Free energy of the ion-electron system (eV)
  ---------------------------------------------------
  alpha Z        PSCENC =        41.50460598
  Ewald energy   TEWEN  =      5978.24959448
[...]
  band No.  band energies     occupation 
      1     -17.1289      2.00000
      2     -16.9683      2.00000
      3      -7.8370      2.00000
      4      -7.5476      2.00000
      5      -6.5599      2.00000
      6      -6.5416      2.00000
      7      -6.1247      2.00000
      8      -5.8087      2.00000
      9      -4.7285      2.00000
     10      -4.5146      2.00000
     11      -3.4930      2.00000
     12      -3.3028      2.00000
     13      -3.2288      2.00000
     14      -2.9607      2.00000
     15      -2.9035      2.00000
     16      -2.8787      2.00000
     17      -2.4391      2.00000
     18      -0.1933      0.00000
     19       1.2895      0.00000
     20       2.3709      0.00000
     21       4.5581      0.00000
     22       4.8390      0.00000

 k-point     4 :      -0.2500   -0.0000    0.0000
  band No.  band energies     occupation 
      1     -17.3575      2.00000
      2     -17.2573      2.00000
      3      -7.7247      2.00000
      4      -7.0446      2.00000
      5      -6.7336      2.00000
      6      -6.6168      2.00000
      7      -6.2694      2.00000
      8      -5.5015      2.00000
      9      -5.1426      2.00000
     10      -4.7119      2.00000
     11      -4.4353      2.00000
     12      -3.0869      2.00000
     13      -2.9036      2.00000
     14      -2.8788      2.00000
     15      -2.2465      2.00000
     16      -2.2165      2.00000
     17      -1.9457      2.00000
     18      -0.1771      0.00000
     19       0.3267      0.00000
     20       3.6459      0.00000
     21       4.0067      0.00000
     22       4.5111      0.00000

 k-point     5 :       0.0000    0.2500    0.0000
  band No.  band energies     occupation 
      1     -17.3624      2.00000
      2     -17.2627      2.00000
      3      -7.7363      2.00000
      4      -7.0430      2.00000
      5      -6.7326      2.00000
      6      -6.6241      2.00000
      7      -6.2698      2.00000
      8      -5.4757      2.00000
      9      -5.1361      2.00000
     10      -4.6775      2.00000
     11      -4.4618      2.00000
     12      -3.0924      2.00000
     13      -2.8945      2.00000
     14      -2.8821      2.00000
     15      -2.2563      2.00000
     16      -2.2175      2.00000
     17      -1.9508      2.00000
     18      -0.1582      0.00000
     19       0.3002      0.00000
     20       3.6265      0.00000
     21       4.0002      0.00000
     22       4.5019      0.00000

 k-point     6 :       0.2500    0.2500    0.0000
  band No.  band energies     occupation 
      1     -17.1363      2.00000
      2     -16.9773      2.00000
      3      -7.5221      2.00000
      4      -7.0679      2.00000
      5      -6.9969      2.00000
      6      -6.3010      2.00000
      7      -6.1929      2.00000
      8      -5.8656      2.00000
      9      -5.3650      2.00000
     10      -5.1300      2.00000
     11      -3.7980      2.00000
     12      -3.4028      2.00000
     13      -3.1715      2.00000
     14      -2.9586      2.00000
     15      -2.9019      2.00000
     16      -2.3071      2.00000
     17      -1.9929      2.00000
     18      -0.2342      0.00000
     19       1.3397      0.00000
     20       3.1097      0.00000
     21       4.6213      0.00000
     22       5.5744      0.00000

 k-point     7 :       0.5000    0.2500    0.0000
  band No.  band energies     occupation 
      1     -17.1336      2.00000
      2     -16.9735      2.00000
      3      -7.5333      2.00000
      4      -7.0799      2.00000
      5      -6.9857      2.00000
      6      -6.3045      2.00000
      7      -6.1964      2.00000
      8      -5.8591      2.00000
      9      -5.3601      2.00000
     10      -5.1253      2.00000
     11      -3.7952      2.00000
     12      -3.4102      2.00000
     13      -3.1552      2.00000
     14      -2.9586      2.00000
     15      -2.8966      2.00000
     16      -2.3141      2.00000
     17      -1.9925      2.00000
     18      -0.2385      0.00000
     19       1.3569      0.00000
     20       3.1019      0.00000
     21       4.6127      0.00000
     22       5.5677      0.00000

 k-point     8 :      -0.2500    0.2500    0.0000
  band No.  band energies     occupation 
      1     -17.3596      2.00000
      2     -17.2596      2.00000
      3      -7.7297      2.00000
      4      -7.0443      2.00000
      5      -6.7326      2.00000
      6      -6.6195      2.00000
      7      -6.2702      2.00000
      8      -5.4897      2.00000
      9      -5.1409      2.00000
     10      -4.6965      2.00000
     11      -4.4465      2.00000
     12      -3.0899      2.00000
     13      -2.9030      2.00000
     14      -2.8773      2.00000
     15      -2.2506      2.00000
     16      -2.2162      2.00000
     17      -1.9482      2.00000
     18      -0.1690      0.00000
     19       0.3154      0.00000
     20       3.6373      0.00000
     21       4.0038      0.00000
     22       4.5070      0.00000

 k-point     9 :       0.0000    0.5000    0.0000
  band No.  band energies     occupation 
      1     -17.1379      2.00000
      2     -16.9813      2.00000
      3      -7.8461      2.00000
      4      -7.5474      2.00000
      5      -6.5551      2.00000
      6      -6.5307      2.00000
      7      -6.1278      2.00000
      8      -5.7724      2.00000
      9      -4.7469      2.00000
     10      -4.5146      2.00000
     11      -3.4725      2.00000
     12      -3.3162      2.00000
     13      -3.2082      2.00000
     14      -2.9643      2.00000
     15      -2.9186      2.00000
     16      -2.9107      2.00000
     17      -2.4449      2.00000
     18      -0.1753      0.00000
     19       1.2306      0.00000
     20       2.3943      0.00000
     21       4.5576      0.00000
     22       4.8796      0.00000

 k-point    10 :       0.2500    0.5000    0.0000
  band No.  band energies     occupation 
      1     -17.1384      2.00000
      2     -16.9802      2.00000
      3      -7.5139      2.00000
      4      -7.0595      2.00000
      5      -7.0041      2.00000
      6      -6.2985      2.00000
      7      -6.1904      2.00000
      8      -5.8698      2.00000
      9      -5.3680      2.00000
     10      -5.1336      2.00000
     11      -3.8008      2.00000
     12      -3.3965      2.00000
     13      -3.1841      2.00000
     14      -2.9625      2.00000
     15      -2.9045      2.00000
     16      -2.3019      2.00000
     17      -1.9923      2.00000
     18      -0.2305      0.00000
     19       1.3263      0.00000
     20       3.1156      0.00000
     21       4.6280      0.00000
     22       5.5799      0.00000

 k-point    11 :       0.5000    0.5000    0.0000
  band No.  band energies     occupation 
      1     -17.1328      2.00000
      2     -16.9739      2.00000
      3      -7.8412      2.00000
      4      -7.5478      2.00000
      5      -6.5570      2.00000
      6      -6.5369      2.00000
      7      -6.1256      2.00000
      8      -5.7922      2.00000
      9      -4.7362      2.00000
     10      -4.5157      2.00000
     11      -3.4845      2.00000
     12      -3.3086      2.00000
     13      -3.2207      2.00000
     14      -2.9612      2.00000
     15      -2.9105      2.00000
     16      -2.8932      2.00000
     17      -2.4411      2.00000
     18      -0.1853      0.00000
     19       1.2636      0.00000
     20       2.3813      0.00000
     21       4.5587      0.00000
     22       4.8564      0.00000

 k-point    12 :      -0.2500    0.5000    0.0000
  band No.  band energies     occupation 
      1     -17.1384      2.00000
      2     -16.9802      2.00000
      3      -7.5139      2.00000
      4      -7.0595      2.00000
      5      -7.0041      2.00000
      6      -6.2985      2.00000
      7      -6.1904      2.00000
      8      -5.8698      2.00000
      9      -5.3680      2.00000
     10      -5.1336      2.00000
     11      -3.8008      2.00000
     12      -3.3965      2.00000
     13      -3.1841      2.00000
     14      -2.9625      2.00000
     15      -2.9045      2.00000
     16      -2.3019      2.00000
     17      -1.9923      2.00000
     18      -0.2305      0.00000
     19       1.3263      0.00000
     20       3.1156      0.00000
     21       4.6280      0.00000
     22       5.5799      0.00000

 k-point    13 :      -0.0000   -0.2500    0.0000
  band No.  band energies     occupation 
      1     -17.3624      2.00000
      2     -17.2627      2.00000
      3      -7.7363      2.00000
      4      -7.0430      2.00000
      5      -6.7326      2.00000
      6      -6.6241      2.00000
      7      -6.2698      2.00000
      8      -5.4757      2.00000
      9      -5.1361      2.00000
     10      -4.6775      2.00000
     11      -4.4618      2.00000
     12      -3.0924      2.00000
     13      -2.8945      2.00000
     14      -2.8821      2.00000
     15      -2.2563      2.00000
     16      -2.2175      2.00000
     17      -1.9508      2.00000
     18      -0.1582      0.00000
     19       0.3002      0.00000
     20       3.6265      0.00000
     21       4.0002      0.00000
     22       4.5019      0.00000

 k-point    14 :       0.2500   -0.2500    0.0000
  band No.  band energies     occupation 
      1     -17.3596      2.00000
      2     -17.2596      2.00000
      3      -7.7297      2.00000
      4      -7.0443      2.00000
      5      -6.7326      2.00000
      6      -6.6195      2.00000
      7      -6.2702      2.00000
      8      -5.4897      2.00000
      9      -5.1409      2.00000
     10      -4.6965      2.00000
     11      -4.4465      2.00000
     12      -3.0899      2.00000
     13      -2.9030      2.00000
     14      -2.8773      2.00000
     15      -2.2506      2.00000
     16      -2.2162      2.00000
     17      -1.9482      2.00000
     18      -0.1690      0.00000
     19       0.3154      0.00000
     20       3.6373      0.00000
     21       4.0038      0.00000
     22       4.5070      0.00000

 k-point    15 :       0.5000   -0.2500    0.0000
  band No.  band energies     occupation 
      1     -17.1336      2.00000
      2     -16.9735      2.00000
      3      -7.5333      2.00000
      4      -7.0799      2.00000
      5      -6.9857      2.00000
      6      -6.3045      2.00000
      7      -6.1964      2.00000
      8      -5.8591      2.00000
      9      -5.3601      2.00000
     10      -5.1253      2.00000
     11      -3.7952      2.00000
     12      -3.4102      2.00000
     13      -3.1552      2.00000
     14      -2.9586      2.00000
     15      -2.8966      2.00000
     16      -2.3141      2.00000
     17      -1.9925      2.00000
     18      -0.2385      0.00000
     19       1.3569      0.00000
     20       3.1019      0.00000
     21       4.6127      0.00000
     22       5.5677      0.00000

 k-point    16 :      -0.2500   -0.2500    0.0000
  band No.  band energies     occupation 
      1     -17.1363      2.00000
      2     -16.9773      2.00000
      3      -7.5221      2.00000
      4      -7.0679      2.00000
      5      -6.9969      2.00000
      6      -6.3010      2.00000
      7      -6.1929      2.00000
      8      -5.8656      2.00000
      9      -5.3650      2.00000
     10      -5.1300      2.00000
     11      -3.7980      2.00000
     12      -3.4028      2.00000
     13      -3.1715      2.00000
     14      -2.9586      2.00000
     15      -2.9019      2.00000
     16      -2.3071      2.00000
     17      -1.9929      2.00000
     18      -0.2342      0.00000
     19       1.3397      0.00000
     20       3.1097      0.00000
     21       4.6213      0.00000
     22       5.5744      0.00000


--------------------------------------------------------------------------------------------------------


 soft charge-density along one line, spin component           1
         0         1         2         3         4         5         6         7         8         9
 total charge-density along one line
 
 pseudopotential strength for first ion, spin component:           1
 49.269  51.708   0.000   0.038   0.000   0.000   0.047   0.000
 51.708  54.271   0.000   0.040   0.000   0.000   0.049   0.000
  0.000   0.000   9.298   0.000   0.000  11.526   0.000   0.000
  0.038   0.040   0.000   9.297   0.000   0.000  11.524   0.000
  0.000   0.000   0.000   0.000   9.298   0.000   0.000  11.526
  0.000   0.000  11.526   0.000   0.000  14.302   0.000   0.000
  0.047   0.049   0.000  11.524   0.000   0.000  14.301   0.000
  0.000   0.000   0.000   0.000  11.526   0.000   0.000  14.303
 total augmentation occupancy for first ion, spin component:           1
  8.400  -6.356  -0.027  -3.015  -0.013   0.012   1.253   0.006
 -6.356   6.267   0.026   2.827   0.013  -0.012  -1.242  -0.006
 -0.027   0.026   3.541   0.010   0.002  -1.035  -0.006  -0.001
 -3.015   2.827   0.010   3.334   0.005  -0.006  -0.907  -0.003
 -0.013   0.013   0.002   0.005   3.544  -0.001  -0.003  -1.037
  0.012  -0.012  -1.035  -0.006  -0.001   0.467   0.002   0.001
  1.253  -1.242  -0.006  -0.907  -0.003   0.002   0.419   0.001
  0.006  -0.006  -0.001  -0.003  -1.037   0.001   0.001   0.469


------------------------ aborting loop because EDIFF is reached ----------------------------------------


    CHARGE:  cpu time    0.0699: real time    0.0699
    FORLOC:  cpu time    0.0150: real time    0.0150
    FORNL :  cpu time    0.0883: real time    0.0883
    STRESS:  cpu time    0.4837: real time    0.4837
    FORCOR:  cpu time    0.1907: real time    0.1907
    FORHAR:  cpu time    0.0367: real time    0.0367
    MIXING:  cpu time    0.0098: real time    0.0098
    OFIELD:  cpu time    0.0000: real time    0.0000

 ---------------------------------------------------------------------------------------------

         DFTD3 V3.0 Rev 1        
 Edisp (eV)   -1.23924

 E6    (eV) :    -0.3585
 E8    (eV) :    -0.8808
 % E8        : 71.07
    FORVDW:  cpu time    0.0170: real time    0.0170

  FORCE on cell =-STRESS in cart. coord.  units (eV):
  Direction    XX          YY          ZZ          XY          YZ          ZX
  --------------------------------------------------------------------------------------
  Alpha Z    42.53217    42.53217    42.53217
  Ewald    7497.31578  7495.09505 -9014.16138     0.47560     3.39827     1.66306
  Hartree  7975.24020  7974.21345 -7791.61520     0.21453     1.22787     0.59394
  E(xc)    -141.07511  -141.05252  -141.51365    -0.00383     0.00297     0.00199
  Local  -16100.26600-16096.63633 16171.92078    -0.75846    -4.45626    -2.16352
  n-local   142.28678   141.94998   143.57203     0.06599     0.11795     0.05505
  augment    78.84942    78.81934    79.68321     0.01063    -0.03097    -0.01329
  Kinetic   506.30239   505.98011   509.75993     0.08401    -0.15859    -0.07379
  Fock        0.00000     0.00000     0.00000     0.00000     0.00000     0.00000
  vdW        -0.76022    -0.77906    -0.24171     0.00448    -0.00357    -0.00179
  -------------------------------------------------------------------------------------
  Total       0.42541     0.12219    -0.06383     0.09295     0.09767     0.06164
  in kB       2.98661     0.85786    -0.44812     0.65256     0.68566     0.43274
  external pressure =        1.13 kB  Pullay stress =        0.00 kB


 VOLUME and BASIS-vectors are now :
 -----------------------------------------------------------------------------
  energy-cutoff  :      300.00
  volume of cell :      228.21
      direct lattice vectors                 reciprocal lattice vectors
     3.618760253 -0.036481385  0.000000000     0.277916446  0.156600140  0.000000000
    -1.786911496  3.171211042  0.000000000     0.003197131  0.317138461  0.000000000
     0.000000000  0.000000000 20.000000000     0.000000000  0.000000000  0.050000000

  length of vectors
     3.618944136  3.640004419 20.000000000     0.319000243  0.317154576  0.050000000


 FORCES acting on ions
    electron-ion (+dipol)            ewald-force                    non-local-force                 convergence-correction
 -----------------------------------------------------------------------------------------------
   0.406E+00 0.837E+00 0.996E+03   -.437E+00 -.878E+00 -.100E+04   0.135E-01 0.212E-01 0.563E+01   0.558E-02 -.178E-02 0.719E-02
   -.318E+00 -.657E+00 -.100E+04   0.334E+00 0.679E+00 0.101E+04   0.105E-02 0.333E-02 -.272E+01   -.229E-02 0.432E-02 0.420E-01
   -.658E-01 -.152E+00 -.570E+03   0.462E-01 0.117E+00 0.563E+03   0.693E-02 0.178E-01 0.656E+01   0.865E-02 0.146E-01 0.100E+00
   -.411E-01 -.551E-01 0.575E+03   0.568E-01 0.815E-01 -.569E+03   -.266E-02 -.104E-01 -.645E+01   -.114E-01 -.181E-01 0.280E-01
 -----------------------------------------------------------------------------------------------
   -.182E-01 -.280E-01 -.320E+01   0.114E-13 0.125E-13 0.227E-12   0.188E-01 0.320E-01 0.303E+01   0.558E-03 -.996E-03 0.177E+00
 
 
 POSITION                                       TOTAL-FORCE (eV/Angst)
 -----------------------------------------------------------------------------------
     -0.89391      1.58443      3.36506        -0.011934     -0.021693     -0.019638
     -0.89246      1.58681      7.71656         0.014936      0.028120      0.021040
      0.90909      0.51704      6.21017        -0.004392     -0.003703     -0.005878
      0.92296      2.61716      4.71288         0.001390     -0.002724      0.004476
 -----------------------------------------------------------------------------------
    total drift:                                0.001200      0.002941      0.005016


--------------------------------------------------------------------------------------------------------



  FREE ENERGIE OF THE ION-ELECTRON SYSTEM (eV)
  ---------------------------------------------------
  free  energy   TOTEN  =       -17.79724866 eV

  energy  without entropy=      -17.79724866  energy(sigma->0) =      -17.79724866
 
 d Force = 0.2290727E-03[ 0.152E-03, 0.306E-03]  d Energy = 0.3527164E-03-0.124E-03
 d Force = 0.4581956E+01[ 0.458E+01, 0.459E+01]  d Ewald  = 0.1240694E+02-0.782E+01


--------------------------------------------------------------------------------------------------------


    POTLOK:  cpu time    0.2062: real time    0.2062


--------------------------------------------------------------------------------------------------------


 Quasi-Newton relaxation of ions (Broydens 2nd method)
  g(Force)  = 0.123E-03   g(Stress)= 0.180E-03

 retain information from N=  1 steps
 eigenvalues of (default step * inverse Hessian matrix)
  average eigenvalue of G=   1.7870
 eigenvalue spectrum of G is  1.7870


--------------------------------------------------------------------------------------------------------


  
 reached required accuracy - stopping structural energy minimisation
 writing wavefunctions
     LOOP+:  cpu time    3.7972: real time    3.7981
    4ORBIT:  cpu time    0.0000: real time    0.0000

 total amount of memory used by VASP MPI-rank0    81926. kBytes
=======================================================================

   base      :      30000. kBytes
   nonl-proj :      18904. kBytes
   fftplans  :       8017. kBytes
   grid      :      17149. kBytes
   one-center:         62. kBytes
   wavefun   :       7794. kBytes
 
  
  
 General timing and accounting informations for this job:
 ========================================================
  
                  Total CPU time used (sec):       17.942
                            User time (sec):       17.406
                          System time (sec):        0.536
                         Elapsed time (sec):       18.204
  
                   Maximum memory used (kb):      179968.
                   Average memory used (kb):           0.
  
                          Minor page faults:        28901
                          Major page faults:            0
                 Voluntary context switches:           56
