    4    4  100    1
  0.5716103E+02  0.3633288E-09  0.3633287E-09  0.2000000E-08  0.5000000E-15
  1.000000000000000E-004
  CAR 
 unknown system                          
     34     64     22
 
  0.0000000E+00  0.0000000E+00  0.0000000E+00  0.1562500E-01
    1      -17.666484   1.000000
    2      -17.521897   1.000000
    3       -8.137601   1.000000
    4       -6.966430   1.000000
    5       -6.966428   1.000000
    6       -6.883865   1.000000
    7       -5.955188   1.000000
    8       -5.955187   1.000000
    9       -4.522855   1.000000
   10       -4.522852   1.000000
   11       -3.816336   1.000000
   12       -2.916719   1.000000
   13       -2.916719   1.000000
   14       -2.807386   1.000000
   15       -2.231081   1.000000
   16       -2.231080   1.000000
   17       -2.079045   1.000000
   18       -0.341317   0.000000
   19       -0.341316   0.000000
   20        2.053346   0.000000
   21        3.257464   0.000000
   22        3.856251   0.000000
 
  0.1250000E+00 -0.1302469E-16  0.0000000E+00  0.1562500E-01
    1      -17.593751   1.000000
    2      -17.465871   1.000000
    3       -8.007203   1.000000
    4       -7.047122   1.000000
    5       -6.936249   1.000000
    6       -6.675630   1.000000
    7       -6.225104   1.000000
    8       -5.785148   1.000000
    9       -4.843641   1.000000
   10       -4.746229   1.000000
   11       -4.013699   1.000000
   12       -3.043875   1.000000
   13       -2.690381   1.000000
   14       -2.481657   1.000000
   15       -2.456364   1.000000
   16       -2.398084   1.000000
   17       -2.091250   1.000000
   18       -0.371897   0.000000
   19       -0.281942   0.000000
   20        2.742456   0.000000
   21        3.514555   0.000000
   22        4.106543   0.000000
 
  0.2500000E+00 -0.2604937E-16  0.0000000E+00  0.1562500E-01
    1      -17.426763   1.000000
    2      -17.310643   1.000000
    3       -7.797240   1.000000
    4       -7.121013   1.000000
    5       -6.836475   1.000000
    6       -6.669088   1.000000
    7       -6.334572   1.000000
    8       -5.605152   1.000000
    9       -5.184968   1.000000
   10       -4.795335   1.000000
   11       -4.489380   1.000000
   12       -3.151229   1.000000
   13       -3.001723   1.000000
   14       -2.985245   1.000000
   15       -2.330995   1.000000
   16       -2.328470   1.000000
   17       -2.026707   1.000000
   18       -0.267974   0.000000
   19        0.218285   0.000000
   20        3.528697   0.000000
   21        3.949624   0.000000
   22        4.483292   0.000000
 
  0.3750000E+00 -0.1131848E-16  0.0000000E+00  0.1562500E-01
    1      -17.273337   1.000000
    2      -17.124061   1.000000
    3       -7.875833   1.000000
    4       -7.343479   1.000000
    5       -6.706097   1.000000
    6       -6.534684   1.000000
    7       -6.364026   1.000000
    8       -5.798663   1.000000
    9       -5.064448   1.000000
   10       -4.465415   1.000000
   11       -4.111520   1.000000
   12       -3.721871   1.000000
   13       -3.411448   1.000000
   14       -2.896602   1.000000
   15       -2.545995   1.000000
   16       -2.492271   1.000000
   17       -2.388717   1.000000
   18       -0.294879   0.000000
   19        1.051760   0.000000
   20        2.438444   0.000000
   21        4.653966   0.000000
   22        4.877772   0.000000
 
  0.5000000E+00 -0.5209874E-16  0.0000000E+00  0.1562500E-01
    1      -17.210997   1.000000
    2      -17.039814   1.000000
    3       -7.896029   1.000000
    4       -7.598886   1.000000
    5       -6.643629   1.000000
    6       -6.590413   1.000000
    7       -6.157201   1.000000
    8       -5.898880   1.000000
    9       -4.784006   1.000000
   10       -4.580318   1.000000
   11       -3.602634   1.000000
   12       -3.361310   1.000000
   13       -3.342145   1.000000
   14       -3.109093   1.000000
   15       -3.038955   1.000000
   16       -3.025652   1.000000
   17       -2.510982   1.000000
   18       -0.288535   0.000000
   19        1.163317   0.000000
   20        2.276455   0.000000
   21        4.532384   0.000000
   22        4.772293   0.000000
 
 -0.3750000E+00  0.1131848E-16  0.0000000E+00  0.1562500E-01
    1      -17.273337   1.000000
    2      -17.124061   1.000000
    3       -7.875833   1.000000
    4       -7.343479   1.000000
    5       -6.706097   1.000000
    6       -6.534684   1.000000
    7       -6.364026   1.000000
    8       -5.798663   1.000000
    9       -5.064448   1.000000
   10       -4.465415   1.000000
   11       -4.111520   1.000000
   12       -3.721871   1.000000
   13       -3.411448   1.000000
   14       -2.896602   1.000000
   15       -2.545995   1.000000
   16       -2.492271   1.000000
   17       -2.388717   1.000000
   18       -0.294879   0.000000
   19        1.051760   0.000000
   20        2.438444   0.000000
   21        4.653966   0.000000
   22        4.877772   0.000000
 
 -0.2500000E+00  0.2604937E-16  0.0000000E+00  0.1562500E-01
    1      -17.426763   1.000000
    2      -17.310643   1.000000
    3       -7.797240   1.000000
    4       -7.121013   1.000000
    5       -6.836475   1.000000
    6       -6.669088   1.000000
    7       -6.334572   1.000000
    8       -5.605152   1.000000
    9       -5.184968   1.000000
   10       -4.795335   1.000000
   11       -4.489380   1.000000
   12       -3.151229   1.000000
   13       -3.001723   1.000000
   14       -2.985245   1.000000
   15       -2.330995   1.000000
   16       -2.328470   1.000000
   17       -2.026707   1.000000
   18       -0.267974   0.000000
   19        0.218285   0.000000
   20        3.528697   0.000000
   21        3.949624   0.000000
   22        4.483292   0.000000
 
 -0.1250000E+00  0.1302469E-16  0.0000000E+00  0.1562500E-01
    1      -17.593751   1.000000
    2      -17.465871   1.000000
    3       -8.007203   1.000000
    4       -7.047122   1.000000
    5       -6.936249   1.000000
    6       -6.675630   1.000000
    7       -6.225104   1.000000
    8       -5.785148   1.000000
    9       -4.843641   1.000000
   10       -4.746229   1.000000
   11       -4.013699   1.000000
   12       -3.043875   1.000000
   13       -2.690381   1.000000
   14       -2.481657   1.000000
   15       -2.456364   1.000000
   16       -2.398084   1.000000
   17       -2.091250   1.000000
   18       -0.371897   0.000000
   19       -0.281942   0.000000
   20        2.742456   0.000000
   21        3.514555   0.000000
   22        4.106543   0.000000
 
  0.2979463E-18  0.1250000E+00  0.0000000E+00  0.1562500E-01
    1      -17.593751   1.000000
    2      -17.465871   1.000000
    3       -8.007203   1.000000
    4       -7.047122   1.000000
    5       -6.936249   1.000000
    6       -6.675630   1.000000
    7       -6.225103   1.000000
    8       -5.785148   1.000000
    9       -4.843641   1.000000
   10       -4.746229   1.000000
   11       -4.013699   1.000000
   12       -3.043874   1.000000
   13       -2.690381   1.000000
   14       -2.481657   1.000000
   15       -2.456364   1.000000
   16       -2.398084   1.000000
   17       -2.091250   1.000000
   18       -0.371897   0.000000
   19       -0.281942   0.000000
   20        2.742456   0.000000
   21        3.514555   0.000000
   22        4.106543   0.000000
 
  0.1250000E+00  0.1250000E+00  0.0000000E+00  0.1562500E-01
    1      -17.474122   1.000000
    2      -17.359591   1.000000
    3       -7.815806   1.000000
    4       -7.099074   1.000000
    5       -6.942011   1.000000
    6       -6.468130   1.000000
    7       -6.356054   1.000000
    8       -5.786572   1.000000
    9       -5.042124   1.000000
   10       -4.941200   1.000000
   11       -4.362750   1.000000
   12       -3.139481   1.000000
   13       -2.864470   1.000000
   14       -2.585222   1.000000
   15       -2.478392   1.000000
   16       -2.395223   1.000000
   17       -2.048902   1.000000
   18       -0.375615   0.000000
   19        0.074174   0.000000
   20        3.591507   0.000000
   21        3.966066   0.000000
   22        4.459445   0.000000
 
  0.2500000E+00  0.1250000E+00  0.0000000E+00  0.1562500E-01
    1      -17.318108   1.000000
    2      -17.182037   1.000000
    3       -7.744523   1.000000
    4       -7.220506   1.000000
    5       -6.716930   1.000000
    6       -6.553353   1.000000
    7       -6.361047   1.000000
    8       -5.803610   1.000000
    9       -5.251154   1.000000
   10       -5.001545   1.000000
   11       -4.101725   1.000000
   12       -3.671039   1.000000
   13       -3.063023   1.000000
   14       -2.783894   1.000000
   15       -2.535521   1.000000
   16       -2.453461   1.000000
   17       -2.197115   1.000000
   18       -0.417798   0.000000
   19        0.860706   0.000000
   20        3.326199   0.000000
   21        4.491644   0.000000
   22        4.915157   0.000000
 
  0.3750000E+00  0.1250000E+00  0.0000000E+00  0.1562500E-01
    1      -17.212404   1.000000
    2      -17.040908   1.000000
    3       -7.767248   1.000000
    4       -7.455004   1.000000
    5       -6.686637   1.000000
    6       -6.485248   1.000000
    7       -6.287846   1.000000
    8       -5.955367   1.000000
    9       -5.137699   1.000000
   10       -4.727680   1.000000
   11       -3.900192   1.000000
   12       -3.457056   1.000000
   13       -3.322736   1.000000
   14       -3.083799   1.000000
   15       -2.984582   1.000000
   16       -2.546048   1.000000
   17       -2.381566   1.000000
   18       -0.327051   0.000000
   19        1.201715   0.000000
   20        2.599443   0.000000
   21        4.853085   0.000000
   22        5.176976   0.000000
 
  0.5000000E+00  0.1250000E+00  0.0000000E+00  0.1562500E-01
    1      -17.212404   1.000000
    2      -17.040908   1.000000
    3       -7.767248   1.000000
    4       -7.455004   1.000000
    5       -6.686636   1.000000
    6       -6.485250   1.000000
    7       -6.287845   1.000000
    8       -5.955367   1.000000
    9       -5.137699   1.000000
   10       -4.727680   1.000000
   11       -3.900192   1.000000
   12       -3.457056   1.000000
   13       -3.322735   1.000000
   14       -3.083798   1.000000
   15       -2.984582   1.000000
   16       -2.546049   1.000000
   17       -2.381566   1.000000
   18       -0.327051   0.000000
   19        1.201715   0.000000
   20        2.599443   0.000000
   21        4.853085   0.000000
   22        5.176975   0.000000
 
 -0.3750000E+00  0.1250000E+00  0.0000000E+00  0.1562500E-01
    1      -17.318108   1.000000
    2      -17.182037   1.000000
    3       -7.744523   1.000000
    4       -7.220507   1.000000
    5       -6.716930   1.000000
    6       -6.553354   1.000000
    7       -6.361048   1.000000
    8       -5.803609   1.000000
    9       -5.251154   1.000000
   10       -5.001545   1.000000
   11       -4.101724   1.000000
   12       -3.671039   1.000000
   13       -3.063022   1.000000
   14       -2.783894   1.000000
   15       -2.535520   1.000000
   16       -2.453462   1.000000
   17       -2.197115   1.000000
   18       -0.417798   0.000000
   19        0.860707   0.000000
   20        3.326198   0.000000
   21        4.491644   0.000000
   22        4.915158   0.000000
 
 -0.2500000E+00  0.1250000E+00  0.0000000E+00  0.1562500E-01
    1      -17.474121   1.000000
    2      -17.359591   1.000000
    3       -7.815805   1.000000
    4       -7.099074   1.000000
    5       -6.942011   1.000000
    6       -6.468132   1.000000
    7       -6.356055   1.000000
    8       -5.786571   1.000000
    9       -5.042122   1.000000
   10       -4.941201   1.000000
   11       -4.362749   1.000000
   12       -3.139481   1.000000
   13       -2.864470   1.000000
   14       -2.585219   1.000000
   15       -2.478391   1.000000
   16       -2.395223   1.000000
   17       -2.048902   1.000000
   18       -0.375615   0.000000
   19        0.074174   0.000000
   20        3.591507   0.000000
   21        3.966067   0.000000
   22        4.459445   0.000000
 
 -0.1250000E+00  0.1250000E+00  0.0000000E+00  0.1562500E-01
    1      -17.593751   1.000000
    2      -17.465871   1.000000
    3       -8.007203   1.000000
    4       -7.047121   1.000000
    5       -6.936251   1.000000
    6       -6.675630   1.000000
    7       -6.225103   1.000000
    8       -5.785149   1.000000
    9       -4.843639   1.000000
   10       -4.746231   1.000000
   11       -4.013698   1.000000
   12       -3.043874   1.000000
   13       -2.690381   1.000000
   14       -2.481657   1.000000
   15       -2.456365   1.000000
   16       -2.398083   1.000000
   17       -2.091249   1.000000
   18       -0.371898   0.000000
   19       -0.281942   0.000000
   20        2.742456   0.000000
   21        3.514555   0.000000
   22        4.106543   0.000000
 
  0.5958925E-18  0.2500000E+00  0.0000000E+00  0.1562500E-01
    1      -17.426763   1.000000
    2      -17.310642   1.000000
    3       -7.797240   1.000000
    4       -7.121013   1.000000
    5       -6.836475   1.000000
    6       -6.669088   1.000000
    7       -6.334572   1.000000
    8       -5.605153   1.000000
    9       -5.184968   1.000000
   10       -4.795335   1.000000
   11       -4.489379   1.000000
   12       -3.151229   1.000000
   13       -3.001723   1.000000
   14       -2.985245   1.000000
   15       -2.330995   1.000000
   16       -2.328470   1.000000
   17       -2.026707   1.000000
   18       -0.267974   0.000000
   19        0.218284   0.000000
   20        3.528697   0.000000
   21        3.949625   0.000000
   22        4.483293   0.000000
 
  0.1250000E+00  0.2500000E+00  0.0000000E+00  0.1562500E-01
    1      -17.318108   1.000000
    2      -17.182037   1.000000
    3       -7.744523   1.000000
    4       -7.220506   1.000000
    5       -6.716930   1.000000
    6       -6.553353   1.000000
    7       -6.361048   1.000000
    8       -5.803610   1.000000
    9       -5.251154   1.000000
   10       -5.001545   1.000000
   11       -4.101725   1.000000
   12       -3.671039   1.000000
   13       -3.063023   1.000000
   14       -2.783894   1.000000
   15       -2.535521   1.000000
   16       -2.453461   1.000000
   17       -2.197115   1.000000
   18       -0.417797   0.000000
   19        0.860706   0.000000
   20        3.326199   0.000000
   21        4.491644   0.000000
   22        4.915157   0.000000
 
  0.2500000E+00  0.2500000E+00  0.0000000E+00  0.1562500E-01
    1      -17.213828   1.000000
    2      -17.041996   1.000000
    3       -7.590147   1.000000
    4       -7.127721   1.000000
    5       -7.075857   1.000000
    6       -6.374813   1.000000
    7       -6.254969   1.000000
    8       -5.914143   1.000000
    9       -5.412484   1.000000
   10       -5.197578   1.000000
   11       -3.865615   1.000000
   12       -3.503432   1.000000
   13       -3.287766   1.000000
   14       -3.080090   1.000000
   15       -3.012127   1.000000
   16       -2.426630   1.000000
   17       -2.090096   1.000000
   18       -0.347914   0.000000
   19        1.247827   0.000000
   20        2.987286   0.000000
   21        4.541342   0.000000
   22        5.514899   0.000000
 
  0.3750000E+00  0.2500000E+00  0.0000000E+00  0.1562500E-01
    1      -17.170934   1.000000
    2      -16.981530   1.000000
    3       -7.334785   1.000000
    4       -7.327828   1.000000
    5       -6.927834   1.000000
    6       -6.670899   1.000000
    7       -6.446639   1.000000
    8       -5.724737   1.000000
    9       -5.407865   1.000000
   10       -4.839391   1.000000
   11       -4.306461   1.000000
   12       -3.735778   1.000000
   13       -3.426479   1.000000
   14       -3.074741   1.000000
   15       -2.711073   1.000000
   16       -2.411946   1.000000
   17       -2.152524   1.000000
   18       -0.203512   0.000000
   19        1.417909   0.000000
   20        2.349145   0.000000
   21        5.079973   0.000000
   22        5.465292   0.000000
 
  0.5000000E+00  0.2500000E+00  0.0000000E+00  0.1562500E-01
    1      -17.213828   1.000000
    2      -17.041996   1.000000
    3       -7.590147   1.000000
    4       -7.127722   1.000000
    5       -7.075857   1.000000
    6       -6.374815   1.000000
    7       -6.254968   1.000000
    8       -5.914142   1.000000
    9       -5.412483   1.000000
   10       -5.197579   1.000000
   11       -3.865614   1.000000
   12       -3.503432   1.000000
   13       -3.287765   1.000000
   14       -3.080089   1.000000
   15       -3.012127   1.000000
   16       -2.426630   1.000000
   17       -2.090096   1.000000
   18       -0.347914   0.000000
   19        1.247827   0.000000
   20        2.987286   0.000000
   21        4.541340   0.000000
   22        5.514897   0.000000
 
 -0.3750000E+00  0.2500000E+00  0.0000000E+00  0.1562500E-01
    1      -17.318108   1.000000
    2      -17.182037   1.000000
    3       -7.744522   1.000000
    4       -7.220506   1.000000
    5       -6.716932   1.000000
    6       -6.553353   1.000000
    7       -6.361049   1.000000
    8       -5.803609   1.000000
    9       -5.251155   1.000000
   10       -5.001544   1.000000
   11       -4.101725   1.000000
   12       -3.671038   1.000000
   13       -3.063022   1.000000
   14       -2.783893   1.000000
   15       -2.535520   1.000000
   16       -2.453462   1.000000
   17       -2.197115   1.000000
   18       -0.417797   0.000000
   19        0.860707   0.000000
   20        3.326199   0.000000
   21        4.491644   0.000000
   22        4.915157   0.000000
 
 -0.2500000E+00  0.2500000E+00  0.0000000E+00  0.1562500E-01
    1      -17.426763   1.000000
    2      -17.310642   1.000000
    3       -7.797239   1.000000
    4       -7.121012   1.000000
    5       -6.836478   1.000000
    6       -6.669088   1.000000
    7       -6.334572   1.000000
    8       -5.605153   1.000000
    9       -5.184968   1.000000
   10       -4.795337   1.000000
   11       -4.489377   1.000000
   12       -3.151228   1.000000
   13       -3.001723   1.000000
   14       -2.985245   1.000000
   15       -2.330995   1.000000
   16       -2.328469   1.000000
   17       -2.026706   1.000000
   18       -0.267973   0.000000
   19        0.218284   0.000000
   20        3.528697   0.000000
   21        3.949625   0.000000
   22        4.483293   0.000000
 
 -0.1250000E+00  0.2500000E+00  0.0000000E+00  0.1562500E-01
    1      -17.474121   1.000000
    2      -17.359591   1.000000
    3       -7.815805   1.000000
    4       -7.099074   1.000000
    5       -6.942011   1.000000
    6       -6.468132   1.000000
    7       -6.356055   1.000000
    8       -5.786572   1.000000
    9       -5.042122   1.000000
   10       -4.941202   1.000000
   11       -4.362749   1.000000
   12       -3.139481   1.000000
   13       -2.864470   1.000000
   14       -2.585219   1.000000
   15       -2.478391   1.000000
   16       -2.395223   1.000000
   17       -2.048902   1.000000
   18       -0.375614   0.000000
   19        0.074174   0.000000
   20        3.591507   0.000000
   21        3.966067   0.000000
   22        4.459446   0.000000
 
  0.1327520E-17  0.3750000E+00  0.0000000E+00  0.1562500E-01
    1      -17.273336   1.000000
    2      -17.124061   1.000000
    3       -7.875833   1.000000
    4       -7.343479   1.000000
    5       -6.706097   1.000000
    6       -6.534684   1.000000
    7       -6.364026   1.000000
    8       -5.798664   1.000000
    9       -5.064447   1.000000
   10       -4.465414   1.000000
   11       -4.111520   1.000000
   12       -3.721870   1.000000
   13       -3.411448   1.000000
   14       -2.896602   1.000000
   15       -2.545995   1.000000
   16       -2.492271   1.000000
   17       -2.388717   1.000000
   18       -0.294879   0.000000
   19        1.051759   0.000000
   20        2.438444   0.000000
   21        4.653966   0.000000
   22        4.877771   0.000000
 
  0.1250000E+00  0.3750000E+00  0.0000000E+00  0.1562500E-01
    1      -17.212404   1.000000
    2      -17.040908   1.000000
    3       -7.767247   1.000000
    4       -7.455004   1.000000
    5       -6.686637   1.000000
    6       -6.485248   1.000000
    7       -6.287846   1.000000
    8       -5.955367   1.000000
    9       -5.137698   1.000000
   10       -4.727680   1.000000
   11       -3.900191   1.000000
   12       -3.457056   1.000000
   13       -3.322736   1.000000
   14       -3.083799   1.000000
   15       -2.984582   1.000000
   16       -2.546048   1.000000
   17       -2.381566   1.000000
   18       -0.327051   0.000000
   19        1.201715   0.000000
   20        2.599443   0.000000
   21        4.853085   0.000000
   22        5.176976   0.000000
 
  0.2500000E+00  0.3750000E+00  0.0000000E+00  0.1562500E-01
    1      -17.170934   1.000000
    2      -16.981530   1.000000
    3       -7.334785   1.000000
    4       -7.327827   1.000000
    5       -6.927834   1.000000
    6       -6.670900   1.000000
    7       -6.446639   1.000000
    8       -5.724737   1.000000
    9       -5.407865   1.000000
   10       -4.839392   1.000000
   11       -4.306461   1.000000
   12       -3.735778   1.000000
   13       -3.426479   1.000000
   14       -3.074741   1.000000
   15       -2.711073   1.000000
   16       -2.411946   1.000000
   17       -2.152524   1.000000
   18       -0.203512   0.000000
   19        1.417909   0.000000
   20        2.349145   0.000000
   21        5.079972   0.000000
   22        5.465292   0.000000
 
  0.3750000E+00  0.3750000E+00  0.0000000E+00  0.1562500E-01
    1      -17.170934   1.000000
    2      -16.981530   1.000000
    3       -7.334784   1.000000
    4       -7.327829   1.000000
    5       -6.927836   1.000000
    6       -6.670899   1.000000
    7       -6.446639   1.000000
    8       -5.724738   1.000000
    9       -5.407864   1.000000
   10       -4.839392   1.000000
   11       -4.306460   1.000000
   12       -3.735779   1.000000
   13       -3.426478   1.000000
   14       -3.074740   1.000000
   15       -2.711073   1.000000
   16       -2.411946   1.000000
   17       -2.152524   1.000000
   18       -0.203511   0.000000
   19        1.417909   0.000000
   20        2.349144   0.000000
   21        5.079971   0.000000
   22        5.465291   0.000000
 
  0.5000000E+00  0.3750000E+00  0.0000000E+00  0.1562500E-01
    1      -17.212404   1.000000
    2      -17.040908   1.000000
    3       -7.767247   1.000000
    4       -7.455004   1.000000
    5       -6.686639   1.000000
    6       -6.485252   1.000000
    7       -6.287845   1.000000
    8       -5.955367   1.000000
    9       -5.137697   1.000000
   10       -4.727680   1.000000
   11       -3.900191   1.000000
   12       -3.457055   1.000000
   13       -3.322735   1.000000
   14       -3.083798   1.000000
   15       -2.984581   1.000000
   16       -2.546048   1.000000
   17       -2.381567   1.000000
   18       -0.327050   0.000000
   19        1.201715   0.000000
   20        2.599443   0.000000
   21        4.853084   0.000000
   22        5.176973   0.000000
 
 -0.3750000E+00  0.3750000E+00  0.0000000E+00  0.1562500E-01
    1      -17.273336   1.000000
    2      -17.124060   1.000000
    3       -7.875832   1.000000
    4       -7.343479   1.000000
    5       -6.706100   1.000000
    6       -6.534684   1.000000
    7       -6.364026   1.000000
    8       -5.798664   1.000000
    9       -5.064447   1.000000
   10       -4.465413   1.000000
   11       -4.111521   1.000000
   12       -3.721869   1.000000
   13       -3.411448   1.000000
   14       -2.896601   1.000000
   15       -2.545995   1.000000
   16       -2.492271   1.000000
   17       -2.388716   1.000000
   18       -0.294878   0.000000
   19        1.051760   0.000000
   20        2.438443   0.000000
   21        4.653966   0.000000
   22        4.877771   0.000000
 
 -0.2500000E+00  0.3750000E+00  0.0000000E+00  0.1562500E-01
    1      -17.318108   1.000000
    2      -17.182037   1.000000
    3       -7.744522   1.000000
    4       -7.220507   1.000000
    5       -6.716932   1.000000
    6       -6.553354   1.000000
    7       -6.361049   1.000000
    8       -5.803609   1.000000
    9       -5.251154   1.000000
   10       -5.001544   1.000000
   11       -4.101725   1.000000
   12       -3.671038   1.000000
   13       -3.063022   1.000000
   14       -2.783893   1.000000
   15       -2.535520   1.000000
   16       -2.453461   1.000000
   17       -2.197115   1.000000
   18       -0.417797   0.000000
   19        0.860707   0.000000
   20        3.326199   0.000000
   21        4.491644   0.000000
   22        4.915157   0.000000
 
 -0.1250000E+00  0.3750000E+00  0.0000000E+00  0.1562500E-01
    1      -17.318108   1.000000
    2      -17.182037   1.000000
    3       -7.744523   1.000000
    4       -7.220507   1.000000
    5       -6.716930   1.000000
    6       -6.553355   1.000000
    7       -6.361048   1.000000
    8       -5.803609   1.000000
    9       -5.251154   1.000000
   10       -5.001545   1.000000
   11       -4.101724   1.000000
   12       -3.671039   1.000000
   13       -3.063022   1.000000
   14       -2.783893   1.000000
   15       -2.535520   1.000000
   16       -2.453462   1.000000
   17       -2.197115   1.000000
   18       -0.417798   0.000000
   19        0.860707   0.000000
   20        3.326199   0.000000
   21        4.491644   0.000000
   22        4.915158   0.000000
 
  0.1191785E-17  0.5000000E+00  0.0000000E+00  0.1562500E-01
    1      -17.210997   1.000000
    2      -17.039814   1.000000
    3       -7.896028   1.000000
    4       -7.598886   1.000000
    5       -6.643629   1.000000
    6       -6.590414   1.000000
    7       -6.157202   1.000000
    8       -5.898881   1.000000
    9       -4.784006   1.000000
   10       -4.580318   1.000000
   11       -3.602634   1.000000
   12       -3.361310   1.000000
   13       -3.342145   1.000000
   14       -3.109092   1.000000
   15       -3.038955   1.000000
   16       -3.025652   1.000000
   17       -2.510982   1.000000
   18       -0.288535   0.000000
   19        1.163317   0.000000
   20        2.276455   0.000000
   21        4.532384   0.000000
   22        4.772293   0.000000
 
  0.1250000E+00  0.5000000E+00  0.0000000E+00  0.1562500E-01
    1      -17.212404   1.000000
    2      -17.040908   1.000000
    3       -7.767248   1.000000
    4       -7.455004   1.000000
    5       -6.686636   1.000000
    6       -6.485250   1.000000
    7       -6.287846   1.000000
    8       -5.955367   1.000000
    9       -5.137698   1.000000
   10       -4.727680   1.000000
   11       -3.900192   1.000000
   12       -3.457056   1.000000
   13       -3.322735   1.000000
   14       -3.083798   1.000000
   15       -2.984581   1.000000
   16       -2.546049   1.000000
   17       -2.381567   1.000000
   18       -0.327051   0.000000
   19        1.201715   0.000000
   20        2.599443   0.000000
   21        4.853084   0.000000
   22        5.176974   0.000000
 
  0.2500000E+00  0.5000000E+00  0.0000000E+00  0.1562500E-01
    1      -17.213828   1.000000
    2      -17.041996   1.000000
    3       -7.590147   1.000000
    4       -7.127722   1.000000
    5       -7.075857   1.000000
    6       -6.374815   1.000000
    7       -6.254968   1.000000
    8       -5.914142   1.000000
    9       -5.412483   1.000000
   10       -5.197579   1.000000
   11       -3.865614   1.000000
   12       -3.503432   1.000000
   13       -3.287764   1.000000
   14       -3.080088   1.000000
   15       -3.012127   1.000000
   16       -2.426631   1.000000
   17       -2.090096   1.000000
   18       -0.347914   0.000000
   19        1.247827   0.000000
   20        2.987286   0.000000
   21        4.541340   0.000000
   22        5.514897   0.000000
 
  0.3750000E+00  0.5000000E+00  0.0000000E+00  0.1562500E-01
    1      -17.212404   1.000000
    2      -17.040908   1.000000
    3       -7.767247   1.000000
    4       -7.455004   1.000000
    5       -6.686639   1.000000
    6       -6.485251   1.000000
    7       -6.287845   1.000000
    8       -5.955367   1.000000
    9       -5.137697   1.000000
   10       -4.727680   1.000000
   11       -3.900191   1.000000
   12       -3.457055   1.000000
   13       -3.322735   1.000000
   14       -3.083797   1.000000
   15       -2.984581   1.000000
   16       -2.546048   1.000000
   17       -2.381567   1.000000
   18       -0.327050   0.000000
   19        1.201715   0.000000
   20        2.599443   0.000000
   21        4.853083   0.000000
   22        5.176973   0.000000
 
  0.5000000E+00  0.5000000E+00  0.0000000E+00  0.1562500E-01
    1      -17.210996   1.000000
    2      -17.039813   1.000000
    3       -7.896028   1.000000
    4       -7.598886   1.000000
    5       -6.643633   1.000000
    6       -6.590414   1.000000
    7       -6.157202   1.000000
    8       -5.898882   1.000000
    9       -4.784005   1.000000
   10       -4.580318   1.000000
   11       -3.602634   1.000000
   12       -3.361308   1.000000
   13       -3.342146   1.000000
   14       -3.109092   1.000000
   15       -3.038955   1.000000
   16       -3.025650   1.000000
   17       -2.510981   1.000000
   18       -0.288534   0.000000
   19        1.163317   0.000000
   20        2.276455   0.000000
   21        4.532383   0.000000
   22        4.772290   0.000000
 
 -0.3750000E+00  0.5000000E+00  0.0000000E+00  0.1562500E-01
    1      -17.212404   1.000000
    2      -17.040908   1.000000
    3       -7.767247   1.000000
    4       -7.455004   1.000000
    5       -6.686639   1.000000
    6       -6.485251   1.000000
    7       -6.287845   1.000000
    8       -5.955367   1.000000
    9       -5.137697   1.000000
   10       -4.727680   1.000000
   11       -3.900191   1.000000
   12       -3.457055   1.000000
   13       -3.322735   1.000000
   14       -3.083797   1.000000
   15       -2.984581   1.000000
   16       -2.546048   1.000000