 running on    8 total cores
 distrk:  each k-point on    2 cores,    4 groups
 distr:  one band on    1 cores,    2 groups
 using from now: INCAR     
 vasp.5.4.4.16052018 (build Dec 07 2020 11:33:42) complex                       
  
 POSCAR found type information on POSCAR  Cl Br Pt
 POSCAR found :  3 types and       4 ions
 scaLAPACK will be used

 ----------------------------------------------------------------------------- 
|                                                                             |
|           W    W    AA    RRRRR   N    N  II  N    N   GGGG   !!!           |
|           W    W   A  A   R    R  NN   N  II  NN   N  G    G  !!!           |
|           W    W  A    A  R    R  N N  N  II  N N  N  G       !!!           |
|           W WW W  AAAAAA  RRRRR   N  N N  II  N  N N  G  GGG   !            |
|           WW  WW  A    A  R   R   N   NN  II  N   NN  G    G                |
|           W    W  A    A  R    R  N    N  II  N    N   GGGG   !!!           |
|                                                                             |
|      For optimal performance we recommend to set                            |
|        NCORE= 4 - approx SQRT( number of cores)                             |
|      NCORE specifies how many cores store one orbital (NPAR=cpu/NCORE).     |
|      This setting can  greatly improve the performance of VASP for DFT.     |
|      The default,   NCORE=1            might be grossly inefficient         |
|      on modern multi-core architectures or massively parallel machines.     |
|      Do your own testing !!!!                                               |
|      Unfortunately you need to use the default for GW and RPA calculations. |
|      (for HF NCORE is supported but not extensively tested yet)             |
|                                                                             |
 ----------------------------------------------------------------------------- 


 ----------------------------------------------------------------------------- 
|                                                                             |
|           W    W    AA    RRRRR   N    N  II  N    N   GGGG   !!!           |
|           W    W   A  A   R    R  NN   N  II  NN   N  G    G  !!!           |
|           W    W  A    A  R    R  N N  N  II  N N  N  G       !!!           |
|           W WW W  AAAAAA  RRRRR   N  N N  II  N  N N  G  GGG   !            |
|           WW  WW  A    A  R   R   N   NN  II  N   NN  G    G                |
|           W    W  A    A  R    R  N    N  II  N    N   GGGG   !!!           |
|                                                                             |
|      You have enabled k-point parallelism (KPAR>1).                         |
|      This developmental code was originally  written by Paul Kent at ORNL,  |
|      and carefully double checked in Vienna.                                |
|      GW as well as linear response parallelism added by Martijn Marsman     |
|      and Georg Kresse.                                                      |
|      Carefully verify results versus KPAR=1.                                |
|      Report problems to Paul Kent and Vienna.                               |
|                                                                             |
 ----------------------------------------------------------------------------- 

 LDA part: xc-table for Pade appr. of Perdew
 POSCAR, INCAR and KPOINTS ok, starting setup
 FFT: planning ...
 WAVECAR not read
 entering main loop
       N       E                     dE             d eps       ncg     rms          rms(c)
DAV:   1     0.246902423568E+03    0.24690E+03   -0.11750E+04  2816   0.100E+03
DAV:   2     0.518533214322E+01   -0.24172E+03   -0.23018E+03  4192   0.221E+02
DAV:   3    -0.169548755616E+02   -0.22140E+02   -0.21808E+02  3430   0.755E+01
DAV:   4    -0.174540478116E+02   -0.49917E+00   -0.49716E+00  3562   0.128E+01
DAV:   5    -0.174659682045E+02   -0.11920E-01   -0.11918E-01  3440   0.195E+00    0.160E+01
DAV:   6    -0.166018459955E+02    0.86412E+00   -0.23515E+00  3518   0.137E+01    0.891E+00
DAV:   7    -0.166093506505E+02   -0.75047E-02   -0.61336E-01  3320   0.805E+00    0.325E+00
DAV:   8    -0.166675972222E+02   -0.58247E-01   -0.51978E-01  3446   0.102E+01    0.269E+00
DAV:   9    -0.165464080400E+02    0.12119E+00   -0.18240E-01  3464   0.599E+00    0.414E-01
DAV:  10    -0.165448186390E+02    0.15894E-02   -0.27633E-02  3180   0.109E+00    0.172E-01
DAV:  11    -0.165447506078E+02    0.68031E-04   -0.24260E-03  3416   0.389E-01    0.109E-01
DAV:  12    -0.165446945760E+02    0.56032E-04   -0.16668E-04  4342   0.117E-01    0.540E-02
DAV:  13    -0.165447153500E+02   -0.20774E-04   -0.15789E-04  3834   0.118E-01    0.219E-02
DAV:  14    -0.165447348124E+02   -0.19462E-04   -0.65138E-05  3302   0.625E-02    0.258E-02
DAV:  15    -0.165447434640E+02   -0.86516E-05   -0.67955E-06  3464   0.155E-02    0.174E-02
DAV:  16    -0.165447676566E+02   -0.24193E-04   -0.40313E-06  3194   0.109E-02    0.533E-03
DAV:  17    -0.165447868343E+02   -0.19178E-04   -0.17106E-06  3410   0.824E-03    0.294E-03
DAV:  18    -0.165448153758E+02   -0.28542E-04   -0.43864E-06  3194   0.111E-02    0.348E-03
DAV:  19    -0.165448197305E+02   -0.43546E-05   -0.10030E-06  3482   0.979E-03    0.225E-03
DAV:  20    -0.165448221787E+02   -0.24482E-05   -0.34716E-07  3308   0.298E-03    0.720E-04
DAV:  21    -0.165448232596E+02   -0.10809E-05   -0.74194E-08  2694   0.178E-03    0.566E-04
DAV:  22    -0.165448245746E+02   -0.13151E-05   -0.65296E-08  2430   0.942E-04    0.250E-04
DAV:  23    -0.165448252821E+02   -0.70745E-06   -0.12236E-08  2398   0.867E-04    0.399E-04
DAV:  24    -0.165448259208E+02   -0.63874E-06   -0.16788E-08  2376   0.454E-04    0.303E-04
DAV:  25    -0.165448263621E+02   -0.44127E-06   -0.66420E-09  2464   0.525E-04    0.152E-04
DAV:  26    -0.165448266747E+02   -0.31262E-06   -0.85841E-09  2248   0.397E-04    0.576E-05
DAV:  27    -0.165448267085E+02   -0.33861E-07   -0.15299E-09  2416   0.217E-04
   1 F= -.17782925E+02 E0= -.17782925E+02  d E =-.177829E+02
stress tensor set to zero in row and column 3
 BRION: g(F)=  0.223E-03 g(S)=  0.446E-02
 bond charge predicted
       N       E                     dE             d eps       ncg     rms          rms(c)
DAV:   1    -0.165809823896E+02   -0.36156E-01   -0.78231E-01  3044   0.638E+00    0.102E+00
DAV:   2    -0.165568832705E+02    0.24099E-01   -0.62444E-02  3260   0.200E+00    0.422E-01
DAV:   3    -0.165545125255E+02    0.23707E-02   -0.74013E-03  3344   0.786E-01    0.296E-01
DAV:   4    -0.165544450357E+02    0.67490E-04   -0.51018E-03  3272   0.946E-01    0.265E-01
DAV:   5    -0.165537409157E+02    0.70412E-03   -0.15025E-03  3242   0.483E-01    0.103E-01
DAV:   6    -0.165537516456E+02   -0.10730E-04   -0.30431E-04  3314   0.108E-01    0.437E-02
DAV:   7    -0.165537484540E+02    0.31916E-05   -0.19013E-05  3452   0.277E-02    0.188E-02
DAV:   8    -0.165537472701E+02    0.11839E-05   -0.37482E-06  3428   0.143E-02    0.390E-03
DAV:   9    -0.165537473531E+02   -0.83006E-07   -0.28453E-07  3898   0.410E-03    0.151E-03
DAV:  10    -0.165537477418E+02   -0.38873E-06   -0.16683E-07  2900   0.269E-03    0.734E-04
DAV:  11    -0.165537481495E+02   -0.40771E-06   -0.41207E-08  2392   0.149E-03    0.254E-04
DAV:  12    -0.165537485962E+02   -0.44662E-06   -0.23476E-08  2248   0.801E-04    0.152E-04
DAV:  13    -0.165537490059E+02   -0.40975E-06   -0.18676E-08  2256   0.494E-04    0.921E-05
DAV:  14    -0.165537492895E+02   -0.28364E-06   -0.17803E-08  2284   0.414E-04    0.595E-05
DAV:  15    -0.165537493646E+02   -0.75020E-07   -0.90464E-09  2212   0.345E-04    0.473E-05
DAV:  16    -0.165537493576E+02    0.69726E-08   -0.41002E-09  2176   0.296E-04
   2 F= -.17783736E+02 E0= -.17783736E+02  d E =-.810972E-03
stress tensor set to zero in row and column 3
 BRION: g(F)=  0.161E-02 g(S)=  0.216E-02 retain N=  1 mean eig= 0.59
 eig:   0.589
 bond charge predicted
       N       E                     dE             d eps       ncg     rms          rms(c)
DAV:   1    -0.165552396037E+02   -0.14902E-02   -0.20581E-01  2816   0.297E+00    0.434E-01
DAV:   2    -0.165517819631E+02    0.34576E-02   -0.12586E-02  3218   0.889E-01    0.189E-01
DAV:   3    -0.165514347003E+02    0.34726E-03   -0.13844E-03  3344   0.399E-01    0.136E-01
DAV:   4    -0.165513359941E+02    0.98706E-04   -0.97172E-04  3272   0.430E-01    0.109E-01
DAV:   5    -0.165512440778E+02    0.91916E-04   -0.29225E-04  3200   0.185E-01    0.435E-02
DAV:   6    -0.165512478521E+02   -0.37743E-05   -0.51305E-05  3338   0.461E-02    0.174E-02
DAV:   7    -0.165512483464E+02   -0.49430E-06   -0.20216E-06  3308   0.979E-03    0.800E-03
DAV:   8    -0.165512485533E+02   -0.20689E-06   -0.10196E-06  3308   0.785E-03    0.223E-03
DAV:   9    -0.165512486295E+02   -0.76163E-07   -0.91302E-08  2706   0.245E-03    0.590E-04
DAV:  10    -0.165512486509E+02   -0.21432E-07   -0.24515E-08  2464   0.114E-03
   3 F= -.17784857E+02 E0= -.17784857E+02  d E =-.112105E-02
stress tensor set to zero in row and column 3
 BRION: g(F)=  0.331E-03 g(S)=  0.105E-03 retain N=  1 mean eig= 0.47
 eig:   0.467
 bond charge predicted
       N       E                     dE             d eps       ncg     rms          rms(c)
DAV:   1    -0.165522051521E+02   -0.95652E-03   -0.29462E-02  2816   0.996E-01    0.102E-01
DAV:   2    -0.165521023874E+02    0.10276E-03   -0.15677E-03  3040   0.272E-01    0.355E-02
DAV:   3    -0.165520876938E+02    0.14694E-04   -0.53145E-05  3488   0.563E-02    0.227E-02
DAV:   4    -0.165520889209E+02   -0.12271E-05   -0.33131E-05  3308   0.723E-02    0.224E-02
DAV:   5    -0.165520825099E+02    0.64110E-05   -0.13857E-05  3344   0.499E-02    0.885E-03
DAV:   6    -0.165520824254E+02    0.84508E-07   -0.23636E-06  3236   0.951E-03    0.470E-03
DAV:   7    -0.165520822817E+02    0.14373E-06   -0.13408E-07  2700   0.267E-03    0.189E-03
DAV:   8    -0.165520821666E+02    0.11505E-06   -0.42780E-08  2068   0.132E-03    0.309E-04
DAV:   9    -0.165520821767E+02   -0.10091E-07   -0.10674E-08  2500   0.758E-04
   4 F= -.17785206E+02 E0= -.17785206E+02  d E =-.349537E-03
stress tensor set to zero in row and column 3
 BRION: g(F)=  0.242E-03 g(S)=  0.620E-04 retain N=  1 mean eig= 2.46
 eig:   2.460
 bond charge predicted
       N       E                     dE             d eps       ncg     rms          rms(c)
DAV:   1    -0.165551796594E+02   -0.30975E-02   -0.34925E-01  2816   0.338E+00    0.321E-01
DAV:   2    -0.165544104933E+02    0.76917E-03   -0.16201E-02  3286   0.864E-01    0.113E-01
DAV:   3    -0.165542727811E+02    0.13771E-03   -0.56075E-04  3344   0.211E-01    0.755E-02
DAV:   4    -0.165542744621E+02   -0.16810E-05   -0.34372E-04  3266   0.243E-01    0.707E-02
DAV:   5    -0.165542183724E+02    0.56090E-04   -0.12599E-04  3266   0.143E-01    0.276E-02
DAV:   6    -0.165542212944E+02   -0.29221E-05   -0.26770E-05  3122   0.314E-02    0.136E-02
DAV:   7    -0.165542213386E+02   -0.44136E-07   -0.10583E-06  3640   0.698E-03    0.651E-03
DAV:   8    -0.165542210892E+02    0.24939E-06   -0.44519E-07  3464   0.411E-03    0.939E-04
DAV:   9    -0.165542211007E+02   -0.11546E-07   -0.45717E-08  2284   0.191E-03
   5 F= -.17785971E+02 E0= -.17785971E+02  d E =-.764876E-03
stress tensor set to zero in row and column 3
 BRION: g(F)=  0.630E-04 g(S)=  0.293E-04 retain N=  1 mean eig= 7.18
 eig:   7.175
 bond charge predicted
       N       E                     dE             d eps       ncg     rms          rms(c)
DAV:   1    -0.165571225814E+02   -0.29015E-02   -0.17834E-01  2816   0.251E+00    0.268E-01
DAV:   2    -0.165561170517E+02    0.10055E-02   -0.10173E-02  3494   0.718E-01    0.993E-02
DAV:   3    -0.165560184707E+02    0.98581E-04   -0.56119E-04  3344   0.257E-01    0.768E-02
DAV:   4    -0.165559710742E+02    0.47396E-04   -0.30092E-04  3164   0.234E-01    0.571E-02
DAV:   5    -0.165559418869E+02    0.29187E-04   -0.84613E-05  3122   0.930E-02    0.265E-02
DAV:   6    -0.165559423753E+02   -0.48833E-06   -0.18516E-05  3344   0.283E-02    0.952E-03
DAV:   7    -0.165559419999E+02    0.37537E-06   -0.72940E-07  3374   0.741E-03    0.494E-03
DAV:   8    -0.165559419341E+02    0.65808E-07   -0.68891E-07  3380   0.449E-03    0.167E-03
DAV:   9    -0.165559418765E+02    0.57558E-07   -0.58304E-08  2436   0.194E-03    0.480E-04
DAV:  10    -0.165559419168E+02   -0.40247E-07   -0.19001E-08  2122   0.924E-04
   6 F= -.17786177E+02 E0= -.17786177E+02  d E =-.205614E-03
stress tensor set to zero in row and column 3
 BRION: g(F)=  0.214E-04 g(S)=  0.136E-04 retain N=  1 mean eig= 1.80
 eig:   1.805
 bond charge predicted
       N       E                     dE             d eps       ncg     rms          rms(c)
DAV:   1    -0.165554739869E+02    0.46789E-03   -0.17568E-02  2816   0.830E-01    0.981E-02
DAV:   2    -0.165552853458E+02    0.18864E-03   -0.11407E-03  3308   0.248E-01    0.361E-02
DAV:   3    -0.165552679048E+02    0.17441E-04   -0.65693E-05  3230   0.756E-02    0.260E-02
DAV:   4    -0.165552662351E+02    0.16697E-05   -0.40282E-05  3194   0.830E-02    0.223E-02
DAV:   5    -0.165552620070E+02    0.42282E-05   -0.12340E-05  3200   0.409E-02    0.965E-03
DAV:   6    -0.165552633254E+02   -0.13185E-05   -0.26276E-06  3374   0.103E-02    0.393E-03
DAV:   7    -0.165552635362E+02   -0.21078E-06   -0.11138E-07  2430   0.316E-03    0.161E-03
DAV:   8    -0.165552636266E+02   -0.90343E-07   -0.95261E-08  2536   0.177E-03    0.452E-04
DAV:   9    -0.165552636681E+02   -0.41573E-07   -0.14555E-08  2536   0.866E-04
   7 F= -.17786159E+02 E0= -.17786159E+02  d E =0.174408E-04
stress tensor set to zero in row and column 3
 BRION: g(F)=  0.725E-05 g(S)=  0.508E-05 retain N=  1 mean eig= 1.08
 eig:   1.076
 bond charge predicted
       N       E                     dE             d eps       ncg     rms          rms(c)
DAV:   1    -0.165555236039E+02   -0.25998E-03   -0.43682E-03  3044   0.389E-01    0.396E-02
DAV:   2    -0.165555030768E+02    0.20527E-04   -0.22575E-04  3068   0.107E-01    0.149E-02
DAV:   3    -0.165555013844E+02    0.16924E-05   -0.14362E-05  3344   0.435E-02    0.121E-02
DAV:   4    -0.165554997680E+02    0.16164E-05   -0.70426E-06  3230   0.365E-02    0.818E-03
DAV:   5    -0.165554991573E+02    0.61063E-06   -0.17552E-06  3344   0.122E-02    0.411E-03
DAV:   6    -0.165554989430E+02    0.21439E-06   -0.38389E-07  3380   0.435E-03    0.130E-03
DAV:   7    -0.165554988975E+02    0.45452E-07   -0.18381E-08  2140   0.116E-03
   8 F= -.17786178E+02 E0= -.17786178E+02  d E =-.186685E-04
stress tensor set to zero in row and column 3
 BRION: g(F)=  0.324E-05 g(S)=  0.201E-05 retain N=  1 mean eig= 2.89
 eig:   2.894
 bond charge predicted
       N       E                     dE             d eps       ncg     rms          rms(c)
DAV:   1    -0.165559645880E+02   -0.46565E-03   -0.13990E-02  3032   0.693E-01    0.702E-02
DAV:   2    -0.165559034219E+02    0.61166E-04   -0.72300E-04  3290   0.190E-01    0.265E-02
DAV:   3    -0.165558979842E+02    0.54376E-05   -0.43821E-05  3272   0.759E-02    0.212E-02
DAV:   4    -0.165558933268E+02    0.46575E-05   -0.21709E-05  3230   0.640E-02    0.146E-02
DAV:   5    -0.165558916103E+02    0.17165E-05   -0.54910E-06  3266   0.221E-02    0.722E-03
DAV:   6    -0.165558913143E+02    0.29596E-06   -0.12396E-06  3308   0.760E-03    0.231E-03
DAV:   7    -0.165558912441E+02    0.70254E-07   -0.50281E-08  2242   0.190E-03    0.128E-03
DAV:   8    -0.165558912553E+02   -0.11187E-07   -0.52970E-08  2212   0.129E-03
   9 F= -.17786192E+02 E0= -.17786192E+02  d E =-.139459E-04
stress tensor set to zero in row and column 3
 BRION: g(F)=  0.473E-07 g(S)=  0.304E-06 retain N=  1 mean eig= 2.15
 eig:   2.147
 bond charge predicted
       N       E                     dE             d eps       ncg     rms          rms(c)
DAV:   1    -0.165557923055E+02    0.98939E-04   -0.49450E-04  2816   0.138E-01    0.159E-02
DAV:   2    -0.165557871019E+02    0.52036E-05   -0.29745E-05  3230   0.402E-02    0.601E-03
DAV:   3    -0.165557867944E+02    0.30752E-06   -0.22945E-06  3194   0.168E-02    0.489E-03
DAV:   4    -0.165557866513E+02    0.14313E-06   -0.12125E-06  3194   0.149E-02    0.335E-03
DAV:   5    -0.165557866977E+02   -0.46451E-07   -0.28193E-07  3158   0.505E-03
  10 F= -.17786191E+02 E0= -.17786191E+02  d E =0.684754E-06
stress tensor set to zero in row and column 3
 BRION: g(F)=  0.125E-06 g(S)=  0.168E-07 retain N=  1 mean eig= 1.52
 eig:   1.522
 bond charge predicted
       N       E                     dE             d eps       ncg     rms          rms(c)
DAV:   1    -0.165558037284E+02   -0.17077E-04   -0.54773E-05  3254   0.418E-02    0.403E-03
DAV:   2    -0.165558037475E+02   -0.19039E-07   -0.24900E-06  3344   0.106E-02    0.140E-03
DAV:   3    -0.165558037600E+02   -0.12582E-07   -0.88438E-08  2214   0.344E-03
  11 F= -.17786192E+02 E0= -.17786192E+02  d E =-.591609E-06
stress tensor set to zero in row and column 3
 BRION: g(F)=  0.319E-07 g(S)=  0.601E-06 retain N=  1 mean eig= 0.32
 eig:   0.322
 bond charge predicted
       N       E                     dE             d eps       ncg     rms          rms(c)
DAV:   1    -0.165557840567E+02    0.19691E-04   -0.28958E-05  3176   0.323E-02    0.351E-03
DAV:   2    -0.165557838776E+02    0.17910E-06   -0.15452E-06  3158   0.996E-03    0.167E-03
DAV:   3    -0.165557838548E+02    0.22807E-07   -0.28485E-07  3002   0.732E-03
  12 F= -.17786192E+02 E0= -.17786192E+02  d E =0.269585E-06
stress tensor set to zero in row and column 3
 BRION: g(F)=  0.125E-06 g(S)=  0.343E-08 retain N=  1 mean eig= 0.25
 eig:   0.250
 reached required accuracy - stopping structural energy minimisation
 writing wavefunctions
