 vasp.5.4.4.16052018 (build Dec 07 2020 11:33:42) complex                       
  
 executed on             LinuxIFC date 2020.12.16  02:31:29
 running on    8 total cores
 distrk:  each k-point on    2 cores,    4 groups
 distr:  one band on NCORES_PER_BAND=   1 cores,    2 groups


--------------------------------------------------------------------------------------------------------


 INCAR:
 POTCAR:    PAW_PBE Cl 06Sep2000                  
 POTCAR:    PAW_PBE Br 06Sep2000                  
 POTCAR:    PAW_PBE Pt 04Feb2005                  

 ----------------------------------------------------------------------------- 
|                                                                             |
|           W    W    AA    RRRRR   N    N  II  N    N   GGGG   !!!           |
|           W    W   A  A   R    R  NN   N  II  NN   N  G    G  !!!           |
|           W    W  A    A  R    R  N N  N  II  N N  N  G       !!!           |
|           W WW W  AAAAAA  RRRRR   N  N N  II  N  N N  G  GGG   !            |
|           WW  WW  A    A  R   R   N   NN  II  N   NN  G    G                |
|           W    W  A    A  R    R  N    N  II  N    N   GGGG   !!!           |
|                                                                             |
|      For optimal performance we recommend to set                            |
|        NCORE= 4 - approx SQRT( number of cores)                             |
|      NCORE specifies how many cores store one orbital (NPAR=cpu/NCORE).     |
|      This setting can  greatly improve the performance of VASP for DFT.     |
|      The default,   NCORE=1            might be grossly inefficient         |
|      on modern multi-core architectures or massively parallel machines.     |
|      Do your own testing !!!!                                               |
|      Unfortunately you need to use the default for GW and RPA calculations. |
|      (for HF NCORE is supported but not extensively tested yet)             |
|                                                                             |
 ----------------------------------------------------------------------------- 


 ----------------------------------------------------------------------------- 
|                                                                             |
|           W    W    AA    RRRRR   N    N  II  N    N   GGGG   !!!           |
|           W    W   A  A   R    R  NN   N  II  NN   N  G    G  !!!           |
|           W    W  A    A  R    R  N N  N  II  N N  N  G       !!!           |
|           W WW W  AAAAAA  RRRRR   N  N N  II  N  N N  G  GGG   !            |
|           WW  WW  A    A  R   R   N   NN  II  N   NN  G    G                |
|           W    W  A    A  R    R  N    N  II  N    N   GGGG   !!!           |
|                                                                             |
|      You have enabled k-point parallelism (KPAR>1).                         |
|      This developmental code was originally  written by Paul Kent at ORNL,  |
|      and carefully double checked in Vienna.                                |
|      GW as well as linear response parallelism added by Martijn Marsman     |
|      and Georg Kresse.                                                      |
|      Carefully verify results versus KPAR=1.                                |
|      Report problems to Paul Kent and Vienna.                               |
|                                                                             |
 ----------------------------------------------------------------------------- 

 POTCAR:    PAW_PBE Cl 06Sep2000                  
   VRHFIN =Cl: s2p5                                                             
   LEXCH  = PE                                                                  
   EATOM  =   409.7259 eV,   30.1140 Ry                                         
                                                                                
   TITEL  = PAW_PBE Cl 06Sep2000                                                
   LULTRA =        F    use ultrasoft PP ?                                      
   IUNSCR =        1    unscreen: 0-lin 1-nonlin 2-no                           
   RPACOR =    1.500    partial core radius                                     
   POMASS =   35.453; ZVAL   =    7.000    mass and valenz                      
   RCORE  =    1.900    outmost cutoff radius                                   
   RWIGS  =    2.100; RWIGS  =    1.111    wigner-seitz radius (au A)           
   ENMAX  =  262.472; ENMIN  =  196.854 eV                                      
   ICORE  =        2    local potential                                         
   LCOR   =        T    correct aug charges                                     
   LPAW   =        T    paw PP                                                  
   EAUG   =  356.192                                                            
   DEXC   =    0.000                                                            
   RMAX   =    1.945    core radius for proj-oper                               
   RAUG   =    1.300    factor for augmentation sphere                          
   RDEP   =    2.020    radius for radial grids                                 
   RDEPT  =    1.678    core radius for aug-charge                              
                                                                                
   Atomic configuration                                                         
    6 entries                                                                   
     n  l   j            E        occ.                                          
     1  0  0.50     -2751.1850   2.0000                                         
     2  0  0.50      -252.6861   2.0000                                         
     2  1  1.50      -191.6157   6.0000                                         
     3  0  0.50       -20.6916   2.0000                                         
     3  1  0.50        -8.5949   5.0000                                         
     3  2  1.50        -8.1635   0.0000                                         
   Description                                                                  
     l       E           TYP  RCUT    TYP  RCUT                                 
     0    -20.6915656     23  1.900                                             
     0    -22.0521482     23  1.900                                             
     1     -8.5948577     23  1.900                                             
     1     -5.3847331     23  1.900                                             
     2     -8.1634956     23  1.900                                             
  local pseudopotential read in
  partial core-charges read in
  partial kinetic energy density read in
  atomic valenz-charges read in
  non local Contribution for L=           0  read in
    real space projection operators read in
  non local Contribution for L=           0  read in
    real space projection operators read in
  non local Contribution for L=           1  read in
    real space projection operators read in
  non local Contribution for L=           1  read in
    real space projection operators read in
    PAW grid and wavefunctions read in
 
   number of l-projection  operators is LMAX  =           4
   number of lm-projection operators is LMMAX =           8
 
 POTCAR:    PAW_PBE Br 06Sep2000                  
   VRHFIN =Br: s2p5                                                             
   LEXCH  = PE                                                                  
   EATOM  =   368.4488 eV,   27.0802 Ry                                         
                                                                                
   TITEL  = PAW_PBE Br 06Sep2000                                                
   LULTRA =        F    use ultrasoft PP ?                                      
   IUNSCR =        1    unscreen: 0-lin 1-nonlin 2-no                           
   RPACOR =    1.900    partial core radius                                     
   POMASS =   79.904; ZVAL   =    7.000    mass and valenz                      
   RCORE  =    2.100    outmost cutoff radius                                   
   RWIGS  =    2.200; RWIGS  =    1.164    wigner-seitz radius (au A)           
   ENMAX  =  216.285; ENMIN  =  162.214 eV                                      
   ICORE  =        3    local potential                                         
   LCOR   =        T    correct aug charges                                     
   LPAW   =        T    paw PP                                                  
   EAUG   =  503.852                                                            
   DEXC   =    0.000                                                            
   RMAX   =    2.139    core radius for proj-oper                               
   RAUG   =    1.300    factor for augmentation sphere                          
   RDEP   =    2.186    radius for radial grids                                 
   RDEPT  =    1.890    core radius for aug-charge                              
                                                                                
   Atomic configuration                                                         
   10 entries                                                                   
     n  l   j            E        occ.                                          
     1  0  0.50    -13316.2796   2.0000                                         
     2  0  0.50     -1732.8239   2.0000                                         
     2  1  1.50     -1528.2193   6.0000                                         
     3  0  0.50      -238.0460   2.0000                                         
     3  1  1.50      -173.4609   6.0000                                         
     3  2  2.50       -66.7132  10.0000                                         
     4  0  0.50       -20.1334   2.0000                                         
     4  1  0.50        -7.8591   5.0000                                         
     4  2  2.50        -8.1635   0.0000                                         
     4  3  2.50        -8.1635   0.0000                                         
   Description                                                                  
     l       E           TYP  RCUT    TYP  RCUT                                 
     0    -20.1333652     23  2.100                                             
     0    -21.4939478     23  2.100                                             
     1     -7.8591052     23  2.100                                             
     1     -3.1608434     23  2.100                                             
     2     -8.1634956     23  2.100                                             
     3     -1.3605826      7  2.100                                             
  local pseudopotential read in
  partial core-charges read in
  partial kinetic energy density read in
  atomic valenz-charges read in
  non local Contribution for L=           0  read in
    real space projection operators read in
  non local Contribution for L=           0  read in
    real space projection operators read in
  non local Contribution for L=           1  read in
    real space projection operators read in
  non local Contribution for L=           1  read in
    real space projection operators read in
  non local Contribution for L=           2  read in
    real space projection operators read in
    PAW grid and wavefunctions read in
 
   number of l-projection  operators is LMAX  =           5
   number of lm-projection operators is LMMAX =          13
 
 POTCAR:    PAW_PBE Pt 04Feb2005                  
   VRHFIN =Pt: s1d9                                                             
   LEXCH  = PE                                                                  
   EATOM  =   729.1176 eV,   53.5886 Ry                                         
                                                                                
   TITEL  = PAW_PBE Pt 04Feb2005                                                
   LULTRA =        F    use ultrasoft PP ?                                      
   IUNSCR =        1    unscreen: 0-lin 1-nonlin 2-no                           
   RPACOR =    2.330    partial core radius                                     
   POMASS =  195.080; ZVAL   =   10.000    mass and valenz                      
   RCORE  =    2.600    outmost cutoff radius                                   
   RWIGS  =    2.750; RWIGS  =    1.455    wigner-seitz radius (au A)           
   ENMAX  =  230.283; ENMIN  =  172.712 eV                                      
   ICORE  =        3    local potential                                         
   LCOR   =        T    correct aug charges                                     
   LPAW   =        T    paw PP                                                  
   EAUG   =  358.966                                                            
   DEXC   =    0.000                                                            
   RMAX   =    2.658    core radius for proj-oper                               
   RAUG   =    1.300    factor for augmentation sphere                          
   RDEP   =    2.761    radius for radial grids                                 
   RDEPT  =    2.203    core radius for aug-charge                              
                                                                                
   Atomic configuration                                                         
   16 entries                                                                   
     n  l   j            E        occ.                                          
     1  0  0.50    -78401.1885   2.0000                                         
     2  0  0.50    -13770.7750   2.0000                                         
     2  1  1.50    -11931.0468   6.0000                                         
     3  0  0.50     -3234.7234   2.0000                                         
     3  1  1.50     -2699.2216   6.0000                                         
     3  2  2.50     -2119.5714  10.0000                                         
     4  0  0.50      -695.1528   2.0000                                         
     4  1  1.50      -519.6034   6.0000                                         
     4  2  2.50      -306.6786  10.0000                                         
     4  3  3.50       -70.1041  14.0000                                         
     5  0  0.50      -101.7747   2.0000                                         
     5  1  1.50       -55.9873   6.0000                                         
     5  2  2.50        -6.1423   9.0000                                         
     6  0  0.50        -5.6573   1.0000                                         
     6  1  1.50        -6.8029   0.0000                                         
     5  3  2.50        -1.3606   0.0000                                         
   Description                                                                  
     l       E           TYP  RCUT    TYP  RCUT                                 
     2     -6.1423404     23  2.500                                             
     2     -7.5029230     23  2.500                                             
     0     -5.6573207     23  2.500                                             
     0      0.7416693     23  2.500                                             
     1     -2.7211652     23  2.600                                             
     1     20.4087390     23  2.600                                             
     3     -1.3605826     23  2.500                                             
  local pseudopotential read in
  partial core-charges read in
  partial kinetic energy density read in
  atomic valenz-charges read in
  non local Contribution for L=           2  read in
    real space projection operators read in
  non local Contribution for L=           2  read in
    real space projection operators read in
  non local Contribution for L=           0  read in
    real space projection operators read in
  non local Contribution for L=           0  read in
    real space projection operators read in
  non local Contribution for L=           1  read in
    real space projection operators read in
  non local Contribution for L=           1  read in
    real space projection operators read in
    PAW grid and wavefunctions read in
 
   number of l-projection  operators is LMAX  =           6
   number of lm-projection operators is LMMAX =          18
 
  PAW_PBE Cl 06Sep2000                  :
 energy of atom  1       EATOM= -409.7259
 kinetic energy error for atom=    0.0089 (will be added to EATOM!!)
  PAW_PBE Br 06Sep2000                  :
 energy of atom  2       EATOM= -368.4488
 kinetic energy error for atom=    0.0032 (will be added to EATOM!!)
  PAW_PBE Pt 04Feb2005                  :
 energy of atom  3       EATOM= -729.1176
 kinetic energy error for atom=    0.0056 (will be added to EATOM!!)
 
 
 POSCAR: ClBrPt2                                 
  positions in direct lattice
  velocities in cartesian coordinates
 exchange correlation table for  LEXCH =        8
   RHO(1)=    0.500       N(1)  =     2000
   RHO(2)=  100.500       N(2)  =     4000
 


--------------------------------------------------------------------------------------------------------


 ion  position               nearest neighbor table
   1  0.000  0.500  0.168-   4 2.49   4 2.49   4 2.49
   2  0.000  0.500  0.386-   3 2.58   3 2.58   3 2.58
   3  0.333  0.167  0.310-   4 2.58   4 2.58   4 2.58   2 2.58   2 2.58   2 2.58
   4  0.667  0.833  0.236-   1 2.49   1 2.49   1 2.49   3 2.58   3 2.58   3 2.58
 

IMPORTANT INFORMATION: All symmetrisations will be switched off!
NOSYMM: (Re-)initialisation of all symmetry stuff for point group C_1.

 
 
 KPOINTS: Automatic mesh                          

Automatic generation of k-mesh.
Space group operators:
 irot       det(A)        alpha          n_x          n_y          n_z        tau_x        tau_y        tau_z
    1     1.000000     0.000000     1.000000     0.000000     0.000000     0.000000     0.000000     0.000000
 
 Subroutine IBZKPT returns following result:
 ===========================================
 
 Found     64 irreducible k-points:
 
 Following reciprocal coordinates:
            Coordinates               Weight
  0.000000  0.000000  0.000000      1.000000
  0.125000 -0.000000  0.000000      1.000000
  0.250000 -0.000000  0.000000      1.000000
  0.375000 -0.000000  0.000000      1.000000
  0.500000 -0.000000  0.000000      1.000000
 -0.375000  0.000000  0.000000      1.000000
 -0.250000  0.000000  0.000000      1.000000
 -0.125000  0.000000  0.000000      1.000000
  0.000000  0.125000  0.000000      1.000000
  0.125000  0.125000  0.000000      1.000000
  0.250000  0.125000  0.000000      1.000000
  0.375000  0.125000  0.000000      1.000000
  0.500000  0.125000  0.000000      1.000000
 -0.375000  0.125000  0.000000      1.000000
 -0.250000  0.125000  0.000000      1.000000
 -0.125000  0.125000  0.000000      1.000000
  0.000000  0.250000  0.000000      1.000000
  0.125000  0.250000  0.000000      1.000000
  0.250000  0.250000  0.000000      1.000000
  0.375000  0.250000  0.000000      1.000000
  0.500000  0.250000  0.000000      1.000000
 -0.375000  0.250000  0.000000      1.000000
 -0.250000  0.250000  0.000000      1.000000
 -0.125000  0.250000  0.000000      1.000000
  0.000000  0.375000  0.000000      1.000000
  0.125000  0.375000  0.000000      1.000000
  0.250000  0.375000  0.000000      1.000000
  0.375000  0.375000  0.000000      1.000000
  0.500000  0.375000  0.000000      1.000000
 -0.375000  0.375000  0.000000      1.000000
 -0.250000  0.375000  0.000000      1.000000
 -0.125000  0.375000  0.000000      1.000000
  0.000000  0.500000  0.000000      1.000000
  0.125000  0.500000  0.000000      1.000000
  0.250000  0.500000  0.000000      1.000000
  0.375000  0.500000  0.000000      1.000000
  0.500000  0.500000  0.000000      1.000000
 -0.375000  0.500000  0.000000      1.000000
 -0.250000  0.500000  0.000000      1.000000
 -0.125000  0.500000  0.000000      1.000000
 -0.000000 -0.375000  0.000000      1.000000
  0.125000 -0.375000  0.000000      1.000000
  0.250000 -0.375000  0.000000      1.000000
  0.375000 -0.375000  0.000000      1.000000
  0.500000 -0.375000  0.000000      1.000000
 -0.375000 -0.375000  0.000000      1.000000
 -0.250000 -0.375000  0.000000      1.000000
 -0.125000 -0.375000  0.000000      1.000000
 -0.000000 -0.250000  0.000000      1.000000
  0.125000 -0.250000  0.000000      1.000000
  0.250000 -0.250000  0.000000      1.000000
  0.375000 -0.250000  0.000000      1.000000
  0.500000 -0.250000  0.000000      1.000000
 -0.375000 -0.250000  0.000000      1.000000
 -0.250000 -0.250000  0.000000      1.000000
 -0.125000 -0.250000  0.000000      1.000000
 -0.000000 -0.125000  0.000000      1.000000
  0.125000 -0.125000  0.000000      1.000000
  0.250000 -0.125000  0.000000      1.000000
  0.375000 -0.125000  0.000000      1.000000
  0.500000 -0.125000  0.000000      1.000000
 -0.375000 -0.125000  0.000000      1.000000
 -0.250000 -0.125000  0.000000      1.000000
 -0.125000 -0.125000  0.000000      1.000000
 
 Following cartesian coordinates:
            Coordinates               Weight
  0.000000  0.000000  0.000000      1.000000
  0.034601  0.019518  0.000000      1.000000
  0.069203  0.039035  0.000000      1.000000
  0.103804  0.058553  0.000000      1.000000
  0.138406  0.078070  0.000000      1.000000
 -0.103804 -0.058553  0.000000      1.000000
 -0.069203 -0.039035  0.000000      1.000000
 -0.034601 -0.019518  0.000000      1.000000
  0.000398  0.039724  0.000000      1.000000
  0.034999  0.059242  0.000000      1.000000
  0.069601  0.078759  0.000000      1.000000
  0.104202  0.098277  0.000000      1.000000
  0.138804  0.117794  0.000000      1.000000
 -0.103406 -0.018828  0.000000      1.000000
 -0.068805  0.000689  0.000000      1.000000
 -0.034203  0.020207  0.000000      1.000000
  0.000796  0.079449  0.000000      1.000000
  0.035398  0.098966  0.000000      1.000000
  0.069999  0.118484  0.000000      1.000000
  0.104600  0.138001  0.000000      1.000000
  0.139202  0.157519  0.000000      1.000000
 -0.103008  0.020896  0.000000      1.000000
 -0.068407  0.040414  0.000000      1.000000
 -0.033805  0.059931  0.000000      1.000000
  0.001194  0.119173  0.000000      1.000000
  0.035796  0.138691  0.000000      1.000000
  0.070397  0.158208  0.000000      1.000000
  0.104998  0.177726  0.000000      1.000000
  0.139600  0.197243  0.000000      1.000000
 -0.102610  0.060621  0.000000      1.000000
 -0.068009  0.080138  0.000000      1.000000
 -0.033407  0.099656  0.000000      1.000000
  0.001592  0.158898  0.000000      1.000000
  0.036194  0.178415  0.000000      1.000000
  0.070795  0.197933  0.000000      1.000000
  0.105396  0.217450  0.000000      1.000000
  0.139998  0.236968  0.000000      1.000000
 -0.102212  0.100345  0.000000      1.000000
 -0.067611  0.119863  0.000000      1.000000
 -0.033009  0.139380  0.000000      1.000000
 -0.001194 -0.119173  0.000000      1.000000
  0.033407 -0.099656  0.000000      1.000000
  0.068009 -0.080138  0.000000      1.000000
  0.102610 -0.060621  0.000000      1.000000
  0.137211 -0.041103  0.000000      1.000000
 -0.104998 -0.177726  0.000000      1.000000
 -0.070397 -0.158208  0.000000      1.000000
 -0.035796 -0.138691  0.000000      1.000000
 -0.000796 -0.079449  0.000000      1.000000
  0.033805 -0.059931  0.000000      1.000000
  0.068407 -0.040414  0.000000      1.000000
  0.103008 -0.020896  0.000000      1.000000
  0.137609 -0.001379  0.000000      1.000000
 -0.104600 -0.138001  0.000000      1.000000
 -0.069999 -0.118484  0.000000      1.000000
 -0.035398 -0.098966  0.000000      1.000000
 -0.000398 -0.039724  0.000000      1.000000
  0.034203 -0.020207  0.000000      1.000000
  0.068805 -0.000689  0.000000      1.000000
  0.103406  0.018828  0.000000      1.000000
  0.138008  0.038346  0.000000      1.000000
 -0.104202 -0.098277  0.000000      1.000000
 -0.069601 -0.078759  0.000000      1.000000
 -0.034999 -0.059242  0.000000      1.000000
 


--------------------------------------------------------------------------------------------------------




 Dimension of arrays:
   k-points           NKPTS =     64   k-points in BZ     NKDIM =     64   number of bands    NBANDS=     22
   number of dos      NEDOS =    301   number of ions     NIONS =      4
   non local maximal  LDIM  =      6   non local SUM 2l+1 LMDIM =     18
   total plane-waves  NPLWV =  80640
   max r-space proj   IRMAX =      1   max aug-charges    IRDMAX=  21558
   dimension x,y,z NGX =    24 NGY =   24 NGZ =  140
   dimension x,y,z NGXF=    48 NGYF=   48 NGZF=  280
   support grid    NGXF=    48 NGYF=   48 NGZF=  280
   ions per type =               1   1   2
   NGX,Y,Z   is equivalent  to a cutoff of  10.98, 10.98, 11.64 a.u.
   NGXF,Y,Z  is equivalent  to a cutoff of  21.96, 21.96, 23.27 a.u.

 SYSTEM =  unknown system                          
 POSCAR =  ClBrPt2                                 

 Startparameter for this run:
   NWRITE =      2    write-flag & timer
   PREC   = accura    normal or accurate (medium, high low for compatibility)
   ISTART =      0    job   : 0-new  1-cont  2-samecut
   ICHARG =      2    charge: 1-file 2-atom 10-const
   ISPIN  =      1    spin polarized calculation?
   LNONCOLLINEAR =      F non collinear calculations
   LSORBIT =      F    spin-orbit coupling
   INIWAV =      1    electr: 0-lowe 1-rand  2-diag
   LASPH  =      F    aspherical Exc in radial PAW
   METAGGA=      F    non-selfconsistent MetaGGA calc.

 Electronic Relaxation 1
   ENCUT  =  400.0 eV  29.40 Ry    5.42 a.u.   5.92  5.92 32.61*2*pi/ulx,y,z
   ENINI  =  400.0     initial cutoff
   ENAUG  =  503.9 eV  augmentation charge cutoff
   NELM   =     60;   NELMIN=  2; NELMDL= -5     # of ELM steps 
   EDIFF  = 0.5E-07   stopping-criterion for ELM
   LREAL  =      F    real-space projection
   NLSPLINE    = F    spline interpolate recip. space projectors
   LCOMPAT=      F    compatible to vasp.4.4
   GGA_COMPAT  = T    GGA compatible to vasp.4.4-vasp.4.6
   LMAXPAW     = -100 max onsite density
   LMAXMIX     =    2 max onsite mixed and CHGCAR
   VOSKOWN=      0    Vosko Wilk Nusair interpolation
   ROPT   =    0.00000   0.00000   0.00000
 Ionic relaxation
   EDIFFG = 0.5E-06   stopping-criterion for IOM
   NSW    =    100    number of steps for IOM
   NBLOCK =      1;   KBLOCK =    100    inner block; outer block 
   IBRION =      1    ionic relax: 0-MD 1-quasi-New 2-CG
   NFREE  =      0    steps in history (QN), initial steepest desc. (CG)
   ISIF   =      3    stress and relaxation
   IWAVPR =     11    prediction:  0-non 1-charg 2-wave 3-comb
   ISYM   =     -1    0-nonsym 1-usesym 2-fastsym
   LCORR  =      T    Harris-Foulkes like correction to forces

   POTIM  = 0.5000    time-step for ionic-motion
   TEIN   =    0.0    initial temperature
   TEBEG  =    0.0;   TEEND  =   0.0 temperature during run
   SMASS  =  -3.00    Nose mass-parameter (am)
   estimated Nose-frequenzy (Omega)   =  0.10E-29 period in steps =****** mass=  -0.302E-27a.u.
   SCALEE = 1.0000    scale energy and forces
   NPACO  =    256;   APACO  = 16.0  distance and # of slots for P.C.
   PSTRESS=    0.0 pullay stress

  Mass of Ions in am
   POMASS =  35.45 79.90195.08
  Ionic Valenz
   ZVAL   =   7.00  7.00 10.00
  Atomic Wigner-Seitz radii
   RWIGS  =  -1.00 -1.00 -1.00
  virtual crystal weights 
   VCA    =   1.00  1.00  1.00
   NELECT =      34.0000    total number of electrons
   NUPDOWN=      -1.0000    fix difference up-down

 DOS related values:
   EMIN   =  10.00;   EMAX   =-10.00  energy-range for DOS
   EFERMI =   0.00
   ISMEAR =     0;   SIGMA  =   0.10  broadening in eV -4-tet -1-fermi 0-gaus

 Electronic relaxation 2 (details)
   IALGO  =     38    algorithm
   LDIAG  =      T    sub-space diagonalisation (order eigenvalues)
   LSUBROT=      F    optimize rotation matrix (better conditioning)
   TURBO    =      0    0=normal 1=particle mesh
   IRESTART =      0    0=no restart 2=restart with 2 vectors
   NREBOOT  =      0    no. of reboots
   NMIN     =      0    reboot dimension
   EREF     =   0.00    reference energy to select bands
   IMIX   =      4    mixing-type and parameters
     AMIX     =   0.40;   BMIX     =  1.00
     AMIX_MAG =   1.60;   BMIX_MAG =  1.00
     AMIN     =   0.10
     WC   =   100.;   INIMIX=   1;  MIXPRE=   1;  MAXMIX= -45

 Intra band minimization:
   WEIMIN = 0.0010     energy-eigenvalue tresh-hold
   EBREAK =  0.57E-09  absolut break condition
   DEPER  =   0.30     relativ break condition  

   TIME   =   0.40     timestep for ELM

  volume/ion in A,a.u.               =      57.16       385.74
  Fermi-wavevector in a.u.,A,eV,Ry     =   0.867324  1.639004 10.234984  0.752250
  Thomas-Fermi vector in A             =   1.985841
 
 Write flags
   LWAVE        =      T    write WAVECAR
   LDOWNSAMPLE  =      F    k-point downsampling of WAVECAR
   LCHARG       =      T    write CHGCAR
   LVTOT        =      F    write LOCPOT, total local potential
   LVHAR        =      F    write LOCPOT, Hartree potential only
   LELF         =      F    write electronic localiz. function (ELF)
   LORBIT       =      0    0 simple, 1 ext, 2 COOP (PROOUT), +10 PAW based schemes


 Dipole corrections
   LMONO  =      F    monopole corrections only (constant potential shift)
   LDIPOL =      T    correct potential (dipole corrections)
   IDIPOL =      3    1-x, 2-y, 3-z, 4-all directions 
   EPSILON=  1.0000000 bulk dielectric constant

 Exchange correlation treatment:
   GGA     =    --    GGA type
   LEXCH   =     8    internal setting for exchange type
   VOSKOWN=      0    Vosko Wilk Nusair interpolation
   LHFCALC =     F    Hartree Fock is set to
   LHFONE  =     F    Hartree Fock one center treatment
   AEXX    =    0.0000 exact exchange contribution

 Linear response parameters
   LEPSILON=     F    determine dielectric tensor
   LRPA    =     F    only Hartree local field effects (RPA)
   LNABLA  =     F    use nabla operator in PAW spheres
   LVEL    =     F    velocity operator in full k-point grid
   LINTERFAST=   F  fast interpolation
   KINTER  =     0    interpolate to denser k-point grid
   CSHIFT  =0.1000    complex shift for real part using Kramers Kronig
   OMEGAMAX=  -1.0    maximum frequency
   DEG_THRESHOLD= 0.2000000E-02 threshold for treating states as degnerate
   RTIME   =   -0.100 relaxation time in fs
  (WPLASMAI=    0.000 imaginary part of plasma frequency in eV, 0.658/RTIME)
   DFIELD  = 0.0000000 0.0000000 0.0000000 field for delta impulse in time
 
 Orbital magnetization related:
   ORBITALMAG=     F  switch on orbital magnetization
   LCHIMAG   =     F  perturbation theory with respect to B field
   DQ        =  0.001000  dq finite difference perturbation B field
   LLRAUG    =     F  two centre corrections for induced B field



--------------------------------------------------------------------------------------------------------


 quasi-Newton-method for relaxation of ions
 charge density and potential will be updated during run
 non-spin polarized calculation
 Variant of blocked Davidson
 Davidson routine will perform the subspace rotation
 perform sub-space diagonalisation
    after iterative eigenvector-optimisation
 modified Broyden-mixing scheme, WC =      100.0
 initial mixing is a Kerker type mixing with AMIX =  0.4000 and BMIX =      1.0000
 Hartree-type preconditioning will be used
 using additional bands            5
 reciprocal scheme for non local part
 use partial core corrections
 calculate Harris-corrections to forces 
   (improved forces if not selfconsistent)
 use gradient corrections 
 use of overlap-Matrix (Vanderbilt PP)
 Gauss-broadening in eV      SIGMA  =   0.10


--------------------------------------------------------------------------------------------------------


  energy-cutoff  :      400.00
  volume of cell :      228.64
      direct lattice vectors                 reciprocal lattice vectors
     3.633105297 -0.036405147  0.000000000     0.276811218  0.156140057  0.000000000
    -1.785025189  3.164562680  0.000000000     0.003184438  0.317795665  0.000000000
     0.000000000  0.000000000 20.000000000     0.000000000  0.000000000  0.050000000

  length of vectors
     3.633287690  3.633286650 20.000000000     0.317811528  0.317811619  0.050000000


 
 k-points in units of 2pi/SCALE and weight: Automatic mesh                          
   0.00000000  0.00000000  0.00000000       0.016
   0.03460140  0.01951751  0.00000000       0.016
   0.06920280  0.03903501  0.00000000       0.016
   0.10380421  0.05855252  0.00000000       0.016
   0.13840561  0.07807003  0.00000000       0.016
  -0.10380421 -0.05855252  0.00000000       0.016
  -0.06920280 -0.03903501  0.00000000       0.016
  -0.03460140 -0.01951751  0.00000000       0.016
   0.00039805  0.03972446  0.00000000       0.016
   0.03499946  0.05924197  0.00000000       0.016
   0.06960086  0.07875947  0.00000000       0.016
   0.10420226  0.09827698  0.00000000       0.016
   0.13880366  0.11779449  0.00000000       0.016
  -0.10340615 -0.01882806  0.00000000       0.016
  -0.06880475  0.00068944  0.00000000       0.016
  -0.03420335  0.02020695  0.00000000       0.016
   0.00079611  0.07944892  0.00000000       0.016
   0.03539751  0.09896642  0.00000000       0.016
   0.06999891  0.11848393  0.00000000       0.016
   0.10460032  0.13800144  0.00000000       0.016
   0.13920172  0.15751894  0.00000000       0.016
  -0.10300810  0.02089640  0.00000000       0.016
  -0.06840669  0.04041390  0.00000000       0.016
  -0.03380529  0.05993141  0.00000000       0.016
   0.00119416  0.11917337  0.00000000       0.016
   0.03579557  0.13869088  0.00000000       0.016
   0.07039697  0.15820839  0.00000000       0.016
   0.10499837  0.17772590  0.00000000       0.016
   0.13959977  0.19724340  0.00000000       0.016
  -0.10261004  0.06062085  0.00000000       0.016
  -0.06800864  0.08013836  0.00000000       0.016
  -0.03340724  0.09965587  0.00000000       0.016
   0.00159222  0.15889783  0.00000000       0.016
   0.03619362  0.17841534  0.00000000       0.016
   0.07079502  0.19793285  0.00000000       0.016
   0.10539643  0.21745035  0.00000000       0.016
   0.13999783  0.23696786  0.00000000       0.016
  -0.10221199  0.10034531  0.00000000       0.016
  -0.06761059  0.11986282  0.00000000       0.016
  -0.03300918  0.13938033  0.00000000       0.016
  -0.00119416 -0.11917337  0.00000000       0.016
   0.03340724 -0.09965587  0.00000000       0.016
   0.06800864 -0.08013836  0.00000000       0.016
   0.10261004 -0.06062085  0.00000000       0.016
   0.13721144 -0.04110335  0.00000000       0.016
  -0.10499837 -0.17772590  0.00000000       0.016
  -0.07039697 -0.15820839  0.00000000       0.016
  -0.03579557 -0.13869088  0.00000000       0.016
  -0.00079611 -0.07944892  0.00000000       0.016
   0.03380529 -0.05993141  0.00000000       0.016
   0.06840669 -0.04041390  0.00000000       0.016
   0.10300810 -0.02089640  0.00000000       0.016
   0.13760950 -0.00137889  0.00000000       0.016
  -0.10460032 -0.13800144  0.00000000       0.016
  -0.06999891 -0.11848393  0.00000000       0.016
  -0.03539751 -0.09896642  0.00000000       0.016
  -0.00039805 -0.03972446  0.00000000       0.016
   0.03420335 -0.02020695  0.00000000       0.016
   0.06880475 -0.00068944  0.00000000       0.016
   0.10340615  0.01882806  0.00000000       0.016
   0.13800755  0.03834557  0.00000000       0.016
  -0.10420226 -0.09827698  0.00000000       0.016
  -0.06960086 -0.07875947  0.00000000       0.016
  -0.03499946 -0.05924197  0.00000000       0.016
 
 k-points in reciprocal lattice and weights: Automatic mesh                          
   0.00000000  0.00000000  0.00000000       0.016
   0.12500000 -0.00000000  0.00000000       0.016
   0.25000000 -0.00000000  0.00000000       0.016
   0.37500000 -0.00000000  0.00000000       0.016
   0.50000000 -0.00000000  0.00000000       0.016
  -0.37500000  0.00000000  0.00000000       0.016
  -0.25000000  0.00000000  0.00000000       0.016
  -0.12500000  0.00000000  0.00000000       0.016
   0.00000000  0.12500000  0.00000000       0.016
   0.12500000  0.12500000  0.00000000       0.016
   0.25000000  0.12500000  0.00000000       0.016
   0.37500000  0.12500000  0.00000000       0.016
   0.50000000  0.12500000  0.00000000       0.016
  -0.37500000  0.12500000  0.00000000       0.016
  -0.25000000  0.12500000  0.00000000       0.016
  -0.12500000  0.12500000  0.00000000       0.016
   0.00000000  0.25000000  0.00000000       0.016
   0.12500000  0.25000000  0.00000000       0.016
   0.25000000  0.25000000  0.00000000       0.016
   0.37500000  0.25000000  0.00000000       0.016
   0.50000000  0.25000000  0.00000000       0.016
  -0.37500000  0.25000000  0.00000000       0.016
  -0.25000000  0.25000000  0.00000000       0.016
  -0.12500000  0.25000000  0.00000000       0.016
   0.00000000  0.37500000  0.00000000       0.016
   0.12500000  0.37500000  0.00000000       0.016
   0.25000000  0.37500000  0.00000000       0.016
   0.37500000  0.37500000  0.00000000       0.016
   0.50000000  0.37500000  0.00000000       0.016
  -0.37500000  0.37500000  0.00000000       0.016
  -0.25000000  0.37500000  0.00000000       0.016
  -0.12500000  0.37500000  0.00000000       0.016
   0.00000000  0.50000000  0.00000000       0.016
   0.12500000  0.50000000  0.00000000       0.016
   0.25000000  0.50000000  0.00000000       0.016
   0.37500000  0.50000000  0.00000000       0.016
   0.50000000  0.50000000  0.00000000       0.016
  -0.37500000  0.50000000  0.00000000       0.016
  -0.25000000  0.50000000  0.00000000       0.016
  -0.12500000  0.50000000  0.00000000       0.016
  -0.00000000 -0.37500000  0.00000000       0.016
   0.12500000 -0.37500000  0.00000000       0.016
   0.25000000 -0.37500000  0.00000000       0.016
   0.37500000 -0.37500000  0.00000000       0.016
   0.50000000 -0.37500000  0.00000000       0.016
  -0.37500000 -0.37500000  0.00000000       0.016
  -0.25000000 -0.37500000  0.00000000       0.016
  -0.12500000 -0.37500000  0.00000000       0.016
  -0.00000000 -0.25000000  0.00000000       0.016
   0.12500000 -0.25000000  0.00000000       0.016
   0.25000000 -0.25000000  0.00000000       0.016
   0.37500000 -0.25000000  0.00000000       0.016
   0.50000000 -0.25000000  0.00000000       0.016
  -0.37500000 -0.25000000  0.00000000       0.016
  -0.25000000 -0.25000000  0.00000000       0.016
  -0.12500000 -0.25000000  0.00000000       0.016
  -0.00000000 -0.12500000  0.00000000       0.016
   0.12500000 -0.12500000  0.00000000       0.016
   0.25000000 -0.12500000  0.00000000       0.016
   0.37500000 -0.12500000  0.00000000       0.016
   0.50000000 -0.12500000  0.00000000       0.016
  -0.37500000 -0.12500000  0.00000000       0.016
  -0.25000000 -0.12500000  0.00000000       0.016
  -0.12500000 -0.12500000  0.00000000       0.016
 
 position of ions in fractional coordinates (direct lattice) 
   0.00003263  0.49996204  0.16835154
   0.00003225  0.49995986  0.38571185
   0.33336560  0.16662714  0.31043849
   0.66669891  0.83329460  0.23573142
 
 position of ions in cartesian coordinates  (Angst):
  -0.89232630  1.58216003  3.36703077
  -0.89232377  1.58215315  7.71423692
   0.91371869  0.51516581  6.20876988
   0.93473551  2.61274171  4.71462835
 


--------------------------------------------------------------------------------------------------------


 k-point  1 :   0.0000 0.0000 0.0000  plane waves:    4115
 k-point  2 :   0.1250-0.0000 0.0000  plane waves:    4119
 k-point  3 :   0.2500-0.0000 0.0000  plane waves:    4144
 k-point  4 :   0.3750-0.0000 0.0000  plane waves:    4148
 k-point  5 :   0.5000-0.0000 0.0000  plane waves:    4192
 k-point  6 :  -0.3750 0.0000 0.0000  plane waves:    4148
 k-point  7 :  -0.2500 0.0000 0.0000  plane waves:    4144
 k-point  8 :  -0.1250 0.0000 0.0000  plane waves:    4119
 k-point  9 :   0.0000 0.1250 0.0000  plane waves:    4119
 k-point 10 :   0.1250 0.1250 0.0000  plane waves:    4144
 k-point 11 :   0.2500 0.1250 0.0000  plane waves:    4157
 k-point 12 :   0.3750 0.1250 0.0000  plane waves:    4167
 k-point 13 :   0.5000 0.1250 0.0000  plane waves:    4167
 k-point 14 :  -0.3750 0.1250 0.0000  plane waves:    4157
 k-point 15 :  -0.2500 0.1250 0.0000  plane waves:    4144
 k-point 16 :  -0.1250 0.1250 0.0000  plane waves:    4119
 k-point 17 :   0.0000 0.2500 0.0000  plane waves:    4144
 k-point 18 :   0.1250 0.2500 0.0000  plane waves:    4157
 k-point 19 :   0.2500 0.2500 0.0000  plane waves:    4170
 k-point 20 :   0.3750 0.2500 0.0000  plane waves:    4188
 k-point 21 :   0.5000 0.2500 0.0000  plane waves:    4170
 k-point 22 :  -0.3750 0.2500 0.0000  plane waves:    4157
 k-point 23 :  -0.2500 0.2500 0.0000  plane waves:    4144
 k-point 24 :  -0.1250 0.2500 0.0000  plane waves:    4144
 k-point 25 :   0.0000 0.3750 0.0000  plane waves:    4148
 k-point 26 :   0.1250 0.3750 0.0000  plane waves:    4167
 k-point 27 :   0.2500 0.3750 0.0000  plane waves:    4188
 k-point 28 :   0.3750 0.3750 0.0000  plane waves:    4188
 k-point 29 :   0.5000 0.3750 0.0000  plane waves:    4167
 k-point 30 :  -0.3750 0.3750 0.0000  plane waves:    4148
 k-point 31 :  -0.2500 0.3750 0.0000  plane waves:    4157
 k-point 32 :  -0.1250 0.3750 0.0000  plane waves:    4157
 k-point 33 :   0.0000 0.5000 0.0000  plane waves:    4192
 k-point 34 :   0.1250 0.5000 0.0000  plane waves:    4167
 k-point 35 :   0.2500 0.5000 0.0000  plane waves:    4170
 k-point 36 :   0.3750 0.5000 0.0000  plane waves:    4167
 k-point 37 :   0.5000 0.5000 0.0000  plane waves:    4192
 k-point 38 :  -0.3750 0.5000 0.0000  plane waves:    4167
 k-point 39 :  -0.2500 0.5000 0.0000  plane waves:    4170
 k-point 40 :  -0.1250 0.5000 0.0000  plane waves:    4167
 k-point 41 :  -0.0000-0.3750 0.0000  plane waves:    4148
 k-point 42 :   0.1250-0.3750 0.0000  plane waves:    4157
 k-point 43 :   0.2500-0.3750 0.0000  plane waves:    4157
 k-point 44 :   0.3750-0.3750 0.0000  plane waves:    4148
 k-point 45 :   0.5000-0.3750 0.0000  plane waves:    4167
 k-point 46 :  -0.3750-0.3750 0.0000  plane waves:    4188
 k-point 47 :  -0.2500-0.3750 0.0000  plane waves:    4188
 k-point 48 :  -0.1250-0.3750 0.0000  plane waves:    4167
 k-point 49 :  -0.0000-0.2500 0.0000  plane waves:    4144
 k-point 50 :   0.1250-0.2500 0.0000  plane waves:    4144
 k-point 51 :   0.2500-0.2500 0.0000  plane waves:    4144
 k-point 52 :   0.3750-0.2500 0.0000  plane waves:    4157
 k-point 53 :   0.5000-0.2500 0.0000  plane waves:    4170
 k-point 54 :  -0.3750-0.2500 0.0000  plane waves:    4188
 k-point 55 :  -0.2500-0.2500 0.0000  plane waves:    4170
 k-point 56 :  -0.1250-0.2500 0.0000  plane waves:    4157
 k-point 57 :  -0.0000-0.1250 0.0000  plane waves:    4119
 k-point 58 :   0.1250-0.1250 0.0000  plane waves:    4119
 k-point 59 :   0.2500-0.1250 0.0000  plane waves:    4144
 k-point 60 :   0.3750-0.1250 0.0000  plane waves:    4157
 k-point 61 :   0.5000-0.1250 0.0000  plane waves:    4167
 k-point 62 :  -0.3750-0.1250 0.0000  plane waves:    4167
 k-point 63 :  -0.2500-0.1250 0.0000  plane waves:    4157
 k-point 64 :  -0.1250-0.1250 0.0000  plane waves:    4144

 maximum and minimum number of plane-waves per node :      4192     4115

 maximum number of plane-waves:      4192
 maximum index in each direction: 
   IXMAX=    6   IYMAX=    6   IZMAX=   32
   IXMIN=   -6   IYMIN=   -6   IZMIN=  -32


 serial   3D FFT for wavefunctions
 parallel 3D FFT for charge:
    minimum data exchange during FFTs selected (reduces bandwidth)


 total amount of memory used by VASP MPI-rank0   229299. kBytes
=======================================================================

   base      :      30000. kBytes
   nonl-proj :     116168. kBytes
   fftplans  :      11208. kBytes
   grid      :      23989. kBytes
   one-center:         62. kBytes
   wavefun   :      47872. kBytes
 
     INWAV:  cpu time    0.0000: real time    0.0000
 Broyden mixing: mesh for mixing (old mesh)
   NGX = 11   NGY = 11   NGZ = 65
  (NGX  = 48   NGY  = 48   NGZ  =280)
  gives a total of   7865 points

 initial charge density was supplied:
 charge density of overlapping atoms calculated
 number of electron      34.0000000 magnetization 
 keeping initial charge density in first step


--------------------------------------------------------------------------------------------------------


 Maximum index for augmentation-charges        10385 (set IRDMAX)


--------------------------------------------------------------------------------------------------------


 First call to EWALD:  gamma=   0.290
 Maximum number of real-space cells 5x 5x 1
 Maximum number of reciprocal cells 2x 2x 8

    FEWALD:  cpu time    0.0013: real time    0.0013


--------------------------------------- Iteration      1(   1)  ---------------------------------------


    POTLOK:  cpu time    0.2840: real time    0.2841
    SETDIJ:  cpu time    0.0069: real time    0.0069
     EDDAV:  cpu time    3.6206: real time    3.6209
       DOS:  cpu time    0.0009: real time    0.0009
    --------------------------------------------
      LOOP:  cpu time    3.9125: real time    3.9128

 eigenvalue-minimisations  :  2816
 total energy-change (2. order) : 0.2469024E+03  (-0.1174972E+04)
 number of electron      34.0000000 magnetization 
 augmentation part       34.0000000 magnetization 

 DIPCOR: dipole corrections for dipol
 direction  3 min pos   213,
 dipolmoment           0.000000      0.000000     -0.000023 electrons x Angstroem
 Tr[quadrupol]       -79.157174

 energy correction for charged system         0.000000 eV
 dipol+quadrupol energy correction           -0.000000 eV
 added-field ion interaction          0.000219 eV  (added to PSCEN)


 Free energy of the ion-electron system (eV)
  ---------------------------------------------------
  alpha Z        PSCENC =        42.45224435
  Ewald energy   TEWEN  =      5970.20326166
  -Hartree energ DENC   =     -8159.71826346
  -exchange      EXHF   =         0.00000000
  -V(xc)+E(xc)   XCENC  =        37.18481060
  PAW double counting   =      2012.60260865    -1949.97488812
  entropy T*S    EENTRO =        -0.01199973
  eigenvalues    EBANDS =        57.77814951
  atomic energy  EATOM  =      2236.38650011
  Solvation  Ediel_sol  =         0.00000000
  ---------------------------------------------------
  free energy    TOTEN  =       246.90242357 eV

  energy without entropy =      246.91442330  energy(sigma->0) =      246.90842343


--------------------------------------------------------------------------------------------------------




--------------------------------------- Iteration      1(   2)  ---------------------------------------


     EDDAV:  cpu time    5.0182: real time    5.0187
       DOS:  cpu time    0.0006: real time    0.0006
    --------------------------------------------
      LOOP:  cpu time    5.0187: real time    5.0192

 eigenvalue-minimisations  :  4192
 total energy-change (2. order) :-0.2417171E+03  (-0.2301822E+03)
 number of electron      34.0000000 magnetization 
 augmentation part       34.0000000 magnetization 

 DIPCOR: dipole corrections for dipol
 direction  3 min pos   213,
 dipolmoment           0.000000      0.000000     -0.000023 electrons x Angstroem
 Tr[quadrupol]       -79.157174

 energy correction for charged system         0.000000 eV
 dipol+quadrupol energy correction           -0.000000 eV
 added-field ion interaction          0.000219 eV  (added to PSCEN)


 Free energy of the ion-electron system (eV)
  ---------------------------------------------------
  alpha Z        PSCENC =        42.45224435
  Ewald energy   TEWEN  =      5970.20326166
  -Hartree energ DENC   =     -8159.71826346
  -exchange      EXHF   =         0.00000000
  -V(xc)+E(xc)   XCENC  =        37.18481060
  PAW double counting   =      2012.60260865    -1949.97488812
  entropy T*S    EENTRO =        -0.00000042
  eigenvalues    EBANDS =      -183.95094122
  atomic energy  EATOM  =      2236.38650011
  Solvation  Ediel_sol  =         0.00000000
  ---------------------------------------------------
  free energy    TOTEN  =         5.18533214 eV

  energy without entropy =        5.18533257  energy(sigma->0) =        5.18533236


--------------------------------------------------------------------------------------------------------




--------------------------------------- Iteration      1(   3)  ---------------------------------------


     EDDAV:  cpu time    4.1930: real time    4.1933
       DOS:  cpu time    0.0004: real time    0.0004
    --------------------------------------------
      LOOP:  cpu time    4.1934: real time    4.1937

 eigenvalue-minimisations  :  3430
 total energy-change (2. order) :-0.2214021E+02  (-0.2180785E+02)
 number of electron      34.0000000 magnetization 
 augmentation part       34.0000000 magnetization 

 DIPCOR: dipole corrections for dipol
 direction  3 min pos   213,
 dipolmoment           0.000000      0.000000     -0.000023 electrons x Angstroem
 Tr[quadrupol]       -79.157174

 energy correction for charged system         0.000000 eV
 dipol+quadrupol energy correction           -0.000000 eV
 added-field ion interaction          0.000219 eV  (added to PSCEN)


 Free energy of the ion-electron system (eV)
  ---------------------------------------------------
  alpha Z        PSCENC =        42.45224435
  Ewald energy   TEWEN  =      5970.20326166
  -Hartree energ DENC   =     -8159.71826346
  -exchange      EXHF   =         0.00000000
  -V(xc)+E(xc)   XCENC  =        37.18481060
  PAW double counting   =      2012.60260865    -1949.97488812
  entropy T*S    EENTRO =        -0.00000000
  eigenvalues    EBANDS =      -206.09114935
  atomic energy  EATOM  =      2236.38650011
  Solvation  Ediel_sol  =         0.00000000
  ---------------------------------------------------
  free energy    TOTEN  =       -16.95487556 eV

  energy without entropy =      -16.95487556  energy(sigma->0) =      -16.95487556


--------------------------------------------------------------------------------------------------------




--------------------------------------- Iteration      1(   4)  ---------------------------------------


     EDDAV:  cpu time    4.3102: real time    4.3105
       DOS:  cpu time    0.0005: real time    0.0005
    --------------------------------------------
      LOOP:  cpu time    4.3107: real time    4.3110

 eigenvalue-minimisations  :  3562
 total energy-change (2. order) :-0.4991722E+00  (-0.4971618E+00)
 number of electron      34.0000000 magnetization 
 augmentation part       34.0000000 magnetization 

 DIPCOR: dipole corrections for dipol
 direction  3 min pos   213,
 dipolmoment           0.000000      0.000000     -0.000023 electrons x Angstroem
 Tr[quadrupol]       -79.157174

 energy correction for charged system         0.000000 eV
 dipol+quadrupol energy correction           -0.000000 eV
 added-field ion interaction          0.000219 eV  (added to PSCEN)


 Free energy of the ion-electron system (eV)
  ---------------------------------------------------
  alpha Z        PSCENC =        42.45224435
  Ewald energy   TEWEN  =      5970.20326166
  -Hartree energ DENC   =     -8159.71826346
  -exchange      EXHF   =         0.00000000
  -V(xc)+E(xc)   XCENC  =        37.18481060
  PAW double counting   =      2012.60260865    -1949.97488812
  entropy T*S    EENTRO =        -0.00000000
  eigenvalues    EBANDS =      -206.59032160
  atomic energy  EATOM  =      2236.38650011
  Solvation  Ediel_sol  =         0.00000000
  ---------------------------------------------------
  free energy    TOTEN  =       -17.45404781 eV

  energy without entropy =      -17.45404781  energy(sigma->0) =      -17.45404781


--------------------------------------------------------------------------------------------------------




--------------------------------------- Iteration      1(   5)  ---------------------------------------


     EDDAV:  cpu time    4.5289: real time    4.5292
       DOS:  cpu time    0.0007: real time    0.0007
    CHARGE:  cpu time    0.3386: real time    0.3386
    MIXING:  cpu time    0.0088: real time    0.0088
    --------------------------------------------
      LOOP:  cpu time    4.8769: real time    4.8774

 eigenvalue-minimisations  :  3440
 total energy-change (2. order) :-0.1192039E-01  (-0.1191756E-01)
 number of electron      33.9999994 magnetization 
 augmentation part        3.4236641 magnetization 

 DIPCOR: dipole corrections for dipol
 direction  3 min pos   213,
 dipolmoment           0.000000      0.000000     -0.000023 electrons x Angstroem
 Tr[quadrupol]       -79.157174

 energy correction for charged system         0.000000 eV
 dipol+quadrupol energy correction           -0.000000 eV
 added-field ion interaction          0.000219 eV  (added to PSCEN)


 Broyden mixing:
  rms(total) = 0.15970E+01    rms(broyden)= 0.15969E+01
  rms(prec ) = 0.16210E+01
  weight for this iteration     100.00

 Free energy of the ion-electron system (eV)
  ---------------------------------------------------
  alpha Z        PSCENC =        42.45224435
  Ewald energy   TEWEN  =      5970.20326166
  -Hartree energ DENC   =     -8159.71826346
  -exchange      EXHF   =         0.00000000
  -V(xc)+E(xc)   XCENC  =        37.18481060
  PAW double counting   =      2012.60260865    -1949.97488812
  entropy T*S    EENTRO =        -0.00000000
  eigenvalues    EBANDS =      -206.60224199
  atomic energy  EATOM  =      2236.38650011
  Solvation  Ediel_sol  =         0.00000000
  ---------------------------------------------------
  free energy    TOTEN  =       -17.46596820 eV

  energy without entropy =      -17.46596820  energy(sigma->0) =      -17.46596820


--------------------------------------------------------------------------------------------------------




--------------------------------------- Iteration      1(   6)  ---------------------------------------


    POTLOK:  cpu time    0.2899: real time    0.2899
    SETDIJ:  cpu time    0.0084: real time    0.0084
     EDDAV:  cpu time    4.6973: real time    4.7007
       DOS:  cpu time    0.0005: real time    0.0005
    CHARGE:  cpu time    0.3198: real time    0.3199
    MIXING:  cpu time    0.0092: real time    0.0092
    --------------------------------------------
      LOOP:  cpu time    5.3251: real time    5.3286

 eigenvalue-minimisations  :  3518
 total energy-change (2. order) : 0.8641222E+00  (-0.2351495E+00)
 number of electron      33.9999994 magnetization 
 augmentation part        3.8423258 magnetization 

 DIPCOR: dipole corrections for dipol
 direction  3 min pos   213,
 dipolmoment           0.000000      0.000000     -0.035690 electrons x Angstroem
 Tr[quadrupol]       -79.128072

 energy correction for charged system         0.000000 eV
 dipol+quadrupol energy correction           -0.000504 eV
 added-field ion interaction          0.337414 eV  (added to PSCEN)


 Broyden mixing:
  rms(total) = 0.89142E+00    rms(broyden)= 0.89140E+00
  rms(prec ) = 0.89615E+00
  weight for this iteration     100.00

 eigenvalues of (default mixing * dielectric matrix)
  average eigenvalue GAMMA=   1.8622
  1.8622

 Free energy of the ion-electron system (eV)
  ---------------------------------------------------
  alpha Z        PSCENC =        42.78893534
  Ewald energy   TEWEN  =      5970.20326166
  -Hartree energ DENC   =     -8144.25566484
  -exchange      EXHF   =         0.00000000
  -V(xc)+E(xc)   XCENC  =        36.88846343
  PAW double counting   =      2282.37641271    -2222.84566789
  entropy T*S    EENTRO =        -0.00000000
  eigenvalues    EBANDS =      -218.14408652
  atomic energy  EATOM  =      2236.38650011
  Solvation  Ediel_sol  =         0.00000000
  ---------------------------------------------------
  free energy    TOTEN  =       -16.60184600 eV

  energy without entropy =      -16.60184600  energy(sigma->0) =      -16.60184600


--------------------------------------------------------------------------------------------------------




--------------------------------------- Iteration      1(   7)  ---------------------------------------


    POTLOK:  cpu time    0.2982: real time    0.3059
    SETDIJ:  cpu time    0.0079: real time    0.0079
     EDDAV:  cpu time    4.3265: real time    4.3273
       DOS:  cpu time    0.0005: real time    0.0005
    CHARGE:  cpu time    0.3211: real time    0.3212
    MIXING:  cpu time    0.0093: real time    0.0093
    --------------------------------------------
      LOOP:  cpu time    4.9635: real time    4.9721

 eigenvalue-minimisations  :  3320
 total energy-change (2. order) :-0.7504655E-02  (-0.6133572E-01)
 number of electron      33.9999994 magnetization 
 augmentation part        3.8188741 magnetization 

 DIPCOR: dipole corrections for dipol
 direction  3 min pos   207,
 dipolmoment           0.000000      0.000000     -0.000382 electrons x Angstroem
 Tr[quadrupol]       -79.353324

 energy correction for charged system         0.000000 eV
 dipol+quadrupol energy correction           -0.000000 eV
 added-field ion interaction          0.008017 eV  (added to PSCEN)


 Broyden mixing:
  rms(total) = 0.32520E+00    rms(broyden)= 0.32519E+00
  rms(prec ) = 0.34954E+00
  weight for this iteration     100.00

 eigenvalues of (default mixing * dielectric matrix)
  average eigenvalue GAMMA=   1.5547
  0.8178  2.2915

 Free energy of the ion-electron system (eV)
  ---------------------------------------------------
  alpha Z        PSCENC =        42.46004197
  Ewald energy   TEWEN  =      5970.20326166
  -Hartree energ DENC   =     -8148.91823886
  -exchange      EXHF   =         0.00000000
  -V(xc)+E(xc)   XCENC  =        36.80472155
  PAW double counting   =      2604.47958208    -2547.11010840
  entropy T*S    EENTRO =        -0.00000000
  eigenvalues    EBANDS =      -210.91511076
  atomic energy  EATOM  =      2236.38650011
  Solvation  Ediel_sol  =         0.00000000
  ---------------------------------------------------
  free energy    TOTEN  =       -16.60935065 eV

  energy without entropy =      -16.60935065  energy(sigma->0) =      -16.60935065


--------------------------------------------------------------------------------------------------------




--------------------------------------- Iteration      1(   8)  ---------------------------------------


    POTLOK:  cpu time    0.3064: real time    0.3064
    SETDIJ:  cpu time    0.0061: real time    0.0093
     EDDAV:  cpu time    4.7104: real time    4.7243
       DOS:  cpu time    0.0005: real time    0.0005
    CHARGE:  cpu time    0.3037: real time    0.3037
    MIXING:  cpu time    0.0088: real time    0.0088
    --------------------------------------------
      LOOP:  cpu time    5.3359: real time    5.3530

 eigenvalue-minimisations  :  3446
 total energy-change (2. order) :-0.5824657E-01  (-0.5197835E-01)
 number of electron      33.9999994 magnetization 
 augmentation part        3.8230720 magnetization 

 DIPCOR: dipole corrections for dipol
 direction  3 min pos   217,
 dipolmoment           0.000000      0.000000     -0.073771 electrons x Angstroem
 Tr[quadrupol]       -79.370285

 energy correction for charged system         0.000000 eV
 dipol+quadrupol energy correction           -0.002153 eV
 added-field ion interaction          0.130278 eV  (added to PSCEN)


 Broyden mixing:
  rms(total) = 0.26904E+00    rms(broyden)= 0.26903E+00
  rms(prec ) = 0.32576E+00
  weight for this iteration     100.00

 eigenvalues of (default mixing * dielectric matrix)
  average eigenvalue GAMMA=   1.2657
  2.4421  0.9593  0.3958

 Free energy of the ion-electron system (eV)
  ---------------------------------------------------
  alpha Z        PSCENC =        42.58015007
  Ewald energy   TEWEN  =      5970.20326166
  -Hartree energ DENC   =     -8148.44753748
  -exchange      EXHF   =         0.00000000
  -V(xc)+E(xc)   XCENC  =        36.82390975
  PAW double counting   =      2718.19660995    -2661.47524154
  entropy T*S    EENTRO =        -0.00000000
  eigenvalues    EBANDS =      -210.93524973
  atomic energy  EATOM  =      2236.38650011
  Solvation  Ediel_sol  =         0.00000000
  ---------------------------------------------------
  free energy    TOTEN  =       -16.66759722 eV

  energy without entropy =      -16.66759722  energy(sigma->0) =      -16.66759722


--------------------------------------------------------------------------------------------------------




--------------------------------------- Iteration      1(   9)  ---------------------------------------


    POTLOK:  cpu time    0.2849: real time    0.2849
    SETDIJ:  cpu time    0.0078: real time    0.0078
     EDDAV:  cpu time    4.3291: real time    4.3294
       DOS:  cpu time    0.0005: real time    0.0005
    CHARGE:  cpu time    0.3038: real time    0.3038
    MIXING:  cpu time    0.0092: real time    0.0092
    --------------------------------------------
      LOOP:  cpu time    4.9354: real time    4.9357

 eigenvalue-minimisations  :  3464
 total energy-change (2. order) : 0.1211892E+00  (-0.1824022E-01)
 number of electron      33.9999994 magnetization 
 augmentation part        3.8501885 magnetization 

 DIPCOR: dipole corrections for dipol
 direction  3 min pos   209,
 dipolmoment           0.000000      0.000000     -0.025253 electrons x Angstroem
 Tr[quadrupol]       -79.376353

 energy correction for charged system         0.000000 eV
 dipol+quadrupol energy correction           -0.000252 eV
 added-field ion interaction          0.432889 eV  (added to PSCEN)


 Broyden mixing:
  rms(total) = 0.41410E-01    rms(broyden)= 0.41387E-01
  rms(prec ) = 0.44205E-01
  weight for this iteration     100.00

 eigenvalues of (default mixing * dielectric matrix)
  average eigenvalue GAMMA=   1.2898
  2.4554  1.4162  0.8991  0.3886

 Free energy of the ion-electron system (eV)
  ---------------------------------------------------
  alpha Z        PSCENC =        42.88466166
  Ewald energy   TEWEN  =      5970.20326166
  -Hartree energ DENC   =     -8147.40472329
  -exchange      EXHF   =         0.00000000
  -V(xc)+E(xc)   XCENC  =        36.83317723
  PAW double counting   =      2747.35721016    -2690.77713054
  entropy T*S    EENTRO =        -0.00000000
  eigenvalues    EBANDS =      -212.02936503
  atomic energy  EATOM  =      2236.38650011
  Solvation  Ediel_sol  =         0.00000000
  ---------------------------------------------------
  free energy    TOTEN  =       -16.54640804 eV

  energy without entropy =      -16.54640804  energy(sigma->0) =      -16.54640804


--------------------------------------------------------------------------------------------------------




--------------------------------------- Iteration      1(  10)  ---------------------------------------


    POTLOK:  cpu time    0.3037: real time    0.3037
    SETDIJ:  cpu time    0.0077: real time    0.0077
     EDDAV:  cpu time    4.0652: real time    4.0656
       DOS:  cpu time    0.0005: real time    0.0005
    CHARGE:  cpu time    0.3064: real time    0.3064
    MIXING:  cpu time    0.0137: real time    0.0137
    --------------------------------------------
      LOOP:  cpu time    4.6972: real time    4.6976

 eigenvalue-minimisations  :  3180
 total energy-change (2. order) : 0.1589401E-02  (-0.2763300E-02)
 number of electron      33.9999994 magnetization 
 augmentation part        3.8481817 magnetization 

 DIPCOR: dipole corrections for dipol
 direction  3 min pos   205,
 dipolmoment           0.000000      0.000000     -0.032176 electrons x Angstroem
 Tr[quadrupol]       -79.395209

 energy correction for charged system         0.000000 eV
 dipol+quadrupol energy correction           -0.000410 eV
 added-field ion interaction          0.798931 eV  (added to PSCEN)


 Broyden mixing:
  rms(total) = 0.17163E-01    rms(broyden)= 0.17162E-01
  rms(prec ) = 0.19712E-01
  weight for this iteration     100.00

 eigenvalues of (default mixing * dielectric matrix)
  average eigenvalue GAMMA=   1.2249
  2.4467  1.5114  0.8940  0.8940  0.3782

 Free energy of the ion-electron system (eV)
  ---------------------------------------------------
  alpha Z        PSCENC =        43.25054688
  Ewald energy   TEWEN  =      5970.20326166
  -Hartree energ DENC   =     -8147.62559674
  -exchange      EXHF   =         0.00000000
  -V(xc)+E(xc)   XCENC  =        36.86892207
  PAW double counting   =      2752.77419908    -2696.14033126
  entropy T*S    EENTRO =        -0.00000000
  eigenvalues    EBANDS =      -212.26232044
  atomic energy  EATOM  =      2236.38650011
  Solvation  Ediel_sol  =         0.00000000
  ---------------------------------------------------
  free energy    TOTEN  =       -16.54481864 eV

  energy without entropy =      -16.54481864  energy(sigma->0) =      -16.54481864


--------------------------------------------------------------------------------------------------------




--------------------------------------- Iteration      1(  11)  ---------------------------------------


    POTLOK:  cpu time    0.2826: real time    0.2826
    SETDIJ:  cpu time    0.0071: real time    0.0071
     EDDAV:  cpu time    4.4086: real time    4.4088
       DOS:  cpu time    0.0005: real time    0.0005
    CHARGE:  cpu time    0.3418: real time    0.3419
    MIXING:  cpu time    0.0092: real time    0.0092
    --------------------------------------------
      LOOP:  cpu time    5.0499: real time    5.0501

 eigenvalue-minimisations  :  3416
 total energy-change (2. order) : 0.6803116E-04  (-0.2426022E-03)
 number of electron      33.9999994 magnetization 
 augmentation part        3.8448368 magnetization 

 DIPCOR: dipole corrections for dipol
 direction  3 min pos   219,
 dipolmoment           0.000000      0.000000     -0.037103 electrons x Angstroem
 Tr[quadrupol]       -79.333326

 energy correction for charged system         0.000000 eV
 dipol+quadrupol energy correction           -0.000545 eV
 added-field ion interaction         -0.077101 eV  (added to PSCEN)


 Broyden mixing:
  rms(total) = 0.10853E-01    rms(broyden)= 0.10852E-01
  rms(prec ) = 0.12114E-01
  weight for this iteration     100.00

 eigenvalues of (default mixing * dielectric matrix)
  average eigenvalue GAMMA=   1.2282
  2.3334  2.0130  0.3799  0.9769  0.8328  0.8328

 Free energy of the ion-electron system (eV)
  ---------------------------------------------------
  alpha Z        PSCENC =        42.37437969
  Ewald energy   TEWEN  =      5970.20326166
  -Hartree energ DENC   =     -8148.00205761
  -exchange      EXHF   =         0.00000000
  -V(xc)+E(xc)   XCENC  =        36.87593340
  PAW double counting   =      2751.66363036    -2695.01994953
  entropy T*S    EENTRO =        -0.00000000
  eigenvalues    EBANDS =      -211.02644869
  atomic energy  EATOM  =      2236.38650011
  Solvation  Ediel_sol  =         0.00000000
  ---------------------------------------------------
  free energy    TOTEN  =       -16.54475061 eV

  energy without entropy =      -16.54475061  energy(sigma->0) =      -16.54475061


--------------------------------------------------------------------------------------------------------




--------------------------------------- Iteration      1(  12)  ---------------------------------------


    POTLOK:  cpu time    0.2823: real time    0.2823
    SETDIJ:  cpu time    0.0074: real time    0.0074
     EDDAV:  cpu time    5.2890: real time    5.2893
       DOS:  cpu time    0.0005: real time    0.0005
    CHARGE:  cpu time    0.3608: real time    0.3608
    MIXING:  cpu time    0.0093: real time    0.0093
    --------------------------------------------
      LOOP:  cpu time    5.9494: real time    5.9497

 eigenvalue-minimisations  :  4342
 total energy-change (2. order) : 0.5603186E-04  (-0.1666817E-04)
 number of electron      33.9999994 magnetization 
 augmentation part        3.8440954 magnetization 

 DIPCOR: dipole corrections for dipol
 direction  3 min pos   226,
 dipolmoment           0.000000      0.000000     -0.037936 electrons x Angstroem
 Tr[quadrupol]       -79.301331

 energy correction for charged system         0.000000 eV
 dipol+quadrupol energy correction           -0.000569 eV
 added-field ion interaction         -0.589220 eV  (added to PSCEN)


 Broyden mixing:
  rms(total) = 0.53987E-02    rms(broyden)= 0.53986E-02
  rms(prec ) = 0.59808E-02
  weight for this iteration     100.00

 eigenvalues of (default mixing * dielectric matrix)
  average eigenvalue GAMMA=   1.3028
  2.3248  2.3248  1.3881  0.3799  0.9323  0.9323  0.8376

 Free energy of the ion-electron system (eV)
  ---------------------------------------------------
  alpha Z        PSCENC =        41.86223524
  Ewald energy   TEWEN  =      5970.20326166
  -Hartree energ DENC   =     -8148.17610446
  -exchange      EXHF   =         0.00000000
  -V(xc)+E(xc)   XCENC  =        36.87948641
  PAW double counting   =      2749.27935053    -2692.62655204
  entropy T*S    EENTRO =        -0.00000000
  eigenvalues    EBANDS =      -210.35287202
  atomic energy  EATOM  =      2236.38650011
  Solvation  Ediel_sol  =         0.00000000
  ---------------------------------------------------
  free energy    TOTEN  =       -16.54469458 eV

  energy without entropy =      -16.54469458  energy(sigma->0) =      -16.54469458


--------------------------------------------------------------------------------------------------------




--------------------------------------- Iteration      1(  13)  ---------------------------------------


    POTLOK:  cpu time    0.2828: real time    0.2828
    SETDIJ:  cpu time    0.0133: real time    0.0133
     EDDAV:  cpu time    4.6775: real time    4.6778
       DOS:  cpu time    0.0005: real time    0.0005
    CHARGE:  cpu time    0.3012: real time    0.3013
    MIXING:  cpu time    0.0095: real time    0.0095
    --------------------------------------------
      LOOP:  cpu time    5.2849: real time    5.2852

 eigenvalue-minimisations  :  3834
 total energy-change (2. order) :-0.2077401E-04  (-0.1578893E-04)
 number of electron      33.9999994 magnetization 
 augmentation part        3.8449291 magnetization 

 DIPCOR: dipole corrections for dipol
 direction  3 min pos   229,
 dipolmoment           0.000000      0.000000     -0.036815 electrons x Angstroem
 Tr[quadrupol]       -79.295764

 energy correction for charged system         0.000000 eV
 dipol+quadrupol energy correction           -0.000536 eV
 added-field ion interaction         -0.784092 eV  (added to PSCEN)


 Broyden mixing:
  rms(total) = 0.21874E-02    rms(broyden)= 0.21871E-02
  rms(prec ) = 0.28713E-02
  weight for this iteration     100.00

 eigenvalues of (default mixing * dielectric matrix)
  average eigenvalue GAMMA=   1.3439
  2.7295  2.5512  0.3798  1.2819  1.0383  0.9716  0.8996  0.8996

 Free energy of the ion-electron system (eV)
  ---------------------------------------------------
  alpha Z        PSCENC =        41.66739655
  Ewald energy   TEWEN  =      5970.20326166
  -Hartree energ DENC   =     -8148.45738578
  -exchange      EXHF   =         0.00000000
  -V(xc)+E(xc)   XCENC  =        36.88309561
  PAW double counting   =      2746.39815225    -2689.74701465
  entropy T*S    EENTRO =        -0.00000000
  eigenvalues    EBANDS =      -209.87872110
  atomic energy  EATOM  =      2236.38650011
  Solvation  Ediel_sol  =         0.00000000
  ---------------------------------------------------
  free energy    TOTEN  =       -16.54471535 eV

  energy without entropy =      -16.54471535  energy(sigma->0) =      -16.54471535


--------------------------------------------------------------------------------------------------------




--------------------------------------- Iteration      1(  14)  ---------------------------------------


    POTLOK:  cpu time    0.2787: real time    0.2787
    SETDIJ:  cpu time    0.0074: real time    0.0074
     EDDAV:  cpu time    4.1935: real time    4.1937
       DOS:  cpu time    0.0005: real time    0.0005
    CHARGE:  cpu time    0.3203: real time    0.3203
    MIXING:  cpu time    0.0100: real time    0.0100
    --------------------------------------------
      LOOP:  cpu time    4.8104: real time    4.8106

 eigenvalue-minimisations  :  3302
 total energy-change (2. order) :-0.1946240E-04  (-0.6513783E-05)
 number of electron      33.9999994 magnetization 
 augmentation part        3.8445464 magnetization 

 DIPCOR: dipole corrections for dipol
 direction  3 min pos   231,
 dipolmoment           0.000000      0.000000     -0.037302 electrons x Angstroem
 Tr[quadrupol]       -79.289311

 energy correction for charged system         0.000000 eV
 dipol+quadrupol energy correction           -0.000551 eV
 added-field ion interaction         -0.937846 eV  (added to PSCEN)


 Broyden mixing:
  rms(total) = 0.25828E-02    rms(broyden)= 0.25828E-02
  rms(prec ) = 0.26946E-02
  weight for this iteration     100.00

 eigenvalues of (default mixing * dielectric matrix)
  average eigenvalue GAMMA=   1.2757
  2.6034  2.6034  1.4231  0.9426  0.9426  1.0030  1.0030  0.3798  0.5799

 Free energy of the ion-electron system (eV)
  ---------------------------------------------------
  alpha Z        PSCENC =        41.51362843
  Ewald energy   TEWEN  =      5970.20326166
  -Hartree energ DENC   =     -8148.64031890
  -exchange      EXHF   =         0.00000000
  -V(xc)+E(xc)   XCENC  =        36.88561368
  PAW double counting   =      2745.45540668    -2688.80310523
  entropy T*S    EENTRO =        -0.00000000
  eigenvalues    EBANDS =      -209.54572123
  atomic energy  EATOM  =      2236.38650011
  Solvation  Ediel_sol  =         0.00000000
  ---------------------------------------------------
  free energy    TOTEN  =       -16.54473481 eV

  energy without entropy =      -16.54473481  energy(sigma->0) =      -16.54473481


--------------------------------------------------------------------------------------------------------




--------------------------------------- Iteration      1(  15)  ---------------------------------------


    POTLOK:  cpu time    0.3028: real time    0.3028
    SETDIJ:  cpu time    0.0071: real time    0.0071
     EDDAV:  cpu time    4.3296: real time    4.3298
       DOS:  cpu time    0.0005: real time    0.0005
    CHARGE:  cpu time    0.3069: real time    0.3069
    MIXING:  cpu time    0.0097: real time    0.0097
    --------------------------------------------
      LOOP:  cpu time    4.9565: real time    4.9568

 eigenvalue-minimisations  :  3464
 total energy-change (2. order) :-0.8651618E-05  (-0.6795451E-06)
 number of electron      33.9999994 magnetization 
 augmentation part        3.8446544 magnetization 

 DIPCOR: dipole corrections for dipol
 direction  3 min pos   232,
 dipolmoment           0.000000      0.000000     -0.037288 electrons x Angstroem
 Tr[quadrupol]       -79.285254

 energy correction for charged system         0.000000 eV
 dipol+quadrupol energy correction           -0.000550 eV
 added-field ion interaction         -1.009160 eV  (added to PSCEN)


 Broyden mixing:
  rms(total) = 0.17401E-02    rms(broyden)= 0.17401E-02
  rms(prec ) = 0.18534E-02
  weight for this iteration     100.00

 eigenvalues of (default mixing * dielectric matrix)
  average eigenvalue GAMMA=   1.3385
  2.7009  2.1616  2.1616  0.3798  1.0424  1.0424  1.1887  0.8012  0.9533  0.9533

 Free energy of the ion-electron system (eV)
  ---------------------------------------------------
  alpha Z        PSCENC =        41.44231515
  Ewald energy   TEWEN  =      5970.20326166
  -Hartree energ DENC   =     -8148.67313998
  -exchange      EXHF   =         0.00000000
  -V(xc)+E(xc)   XCENC  =        36.88579521
  PAW double counting   =      2745.36491133    -2688.71310320
  entropy T*S    EENTRO =        -0.00000000
  eigenvalues    EBANDS =      -209.44128374
  atomic energy  EATOM  =      2236.38650011
  Solvation  Ediel_sol  =         0.00000000
  ---------------------------------------------------
  free energy    TOTEN  =       -16.54474346 eV

  energy without entropy =      -16.54474346  energy(sigma->0) =      -16.54474346


--------------------------------------------------------------------------------------------------------




--------------------------------------- Iteration      1(  16)  ---------------------------------------


    POTLOK:  cpu time    0.2852: real time    0.2853
    SETDIJ:  cpu time    0.0074: real time    0.0074
     EDDAV:  cpu time    4.2775: real time    4.2782
       DOS:  cpu time    0.0005: real time    0.0005
    CHARGE:  cpu time    0.3412: real time    0.3412
    MIXING:  cpu time    0.0104: real time    0.0104
    --------------------------------------------
      LOOP:  cpu time    4.9222: real time    4.9229

 eigenvalue-minimisations  :  3194
 total energy-change (2. order) :-0.2419256E-04  (-0.4031289E-06)
 number of electron      33.9999994 magnetization 
 augmentation part        3.8446704 magnetization 

 DIPCOR: dipole corrections for dipol
 direction  3 min pos   232,
 dipolmoment           0.000000      0.000000     -0.036958 electrons x Angstroem
 Tr[quadrupol]       -79.288406

 energy correction for charged system         0.000000 eV
 dipol+quadrupol energy correction           -0.000540 eV
 added-field ion interaction         -1.000236 eV  (added to PSCEN)


 Broyden mixing:
  rms(total) = 0.53276E-03    rms(broyden)= 0.53273E-03
  rms(prec ) = 0.69573E-03
  weight for this iteration     100.00

 eigenvalues of (default mixing * dielectric matrix)
  average eigenvalue GAMMA=   1.3498
  2.6450  2.6450  1.8522  1.6418  0.3798  1.0186  1.0186  0.9703  0.9703  0.9724
  0.7335

 Free energy of the ion-electron system (eV)
  ---------------------------------------------------
  alpha Z        PSCENC =        41.45124889
  Ewald energy   TEWEN  =      5970.20326166
  -Hartree energ DENC   =     -8148.78116132
  -exchange      EXHF   =         0.00000000
  -V(xc)+E(xc)   XCENC  =        36.88648910
  PAW double counting   =      2745.46828183    -2688.81848552
  entropy T*S    EENTRO =        -0.00000000
  eigenvalues    EBANDS =      -209.34090240
  atomic energy  EATOM  =      2236.38650011
  Solvation  Ediel_sol  =         0.00000000
  ---------------------------------------------------
  free energy    TOTEN  =       -16.54476766 eV

  energy without entropy =      -16.54476766  energy(sigma->0) =      -16.54476766


--------------------------------------------------------------------------------------------------------




--------------------------------------- Iteration      1(  17)  ---------------------------------------


    POTLOK:  cpu time    0.3179: real time    0.3179
    SETDIJ:  cpu time    0.0076: real time    0.0076
     EDDAV:  cpu time    4.5177: real time    4.5204
       DOS:  cpu time    0.0006: real time    0.0006
    CHARGE:  cpu time    0.3533: real time    0.3533
    MIXING:  cpu time    0.0115: real time    0.0167
    --------------------------------------------
      LOOP:  cpu time    5.2087: real time    5.2166

 eigenvalue-minimisations  :  3410
 total energy-change (2. order) :-0.1917770E-04  (-0.1710610E-06)
 number of electron      33.9999994 magnetization 
 augmentation part        3.8447087 magnetization 

 DIPCOR: dipole corrections for dipol
 direction  3 min pos   232,
 dipolmoment           0.000000      0.000000     -0.036633 electrons x Angstroem
 Tr[quadrupol]       -79.291215

 energy correction for charged system         0.000000 eV
 dipol+quadrupol energy correction           -0.000531 eV
[...]
  band No.  band energies     occupation 
      1     -17.4268      2.00000
      2     -17.3106      2.00000
      3      -7.7972      2.00000
      4      -7.1210      2.00000
      5      -6.8365      2.00000
      6      -6.6691      2.00000
      7      -6.3346      2.00000
      8      -5.6052      2.00000
      9      -5.1850      2.00000
     10      -4.7953      2.00000
     11      -4.4894      2.00000
     12      -3.1512      2.00000
     13      -3.0017      2.00000
     14      -2.9852      2.00000
     15      -2.3310      2.00000
     16      -2.3285      2.00000
     17      -2.0267      2.00000
     18      -0.2680      0.00000
     19       0.2183      0.00000
     20       3.5287      0.00000
     21       3.9496      0.00000
     22       4.4833      0.00000

 k-point    52 :       0.3750   -0.2500    0.0000
  band No.  band energies     occupation 
      1     -17.3181      2.00000
      2     -17.1820      2.00000
      3      -7.7445      2.00000
      4      -7.2205      2.00000
      5      -6.7169      2.00000
      6      -6.5534      2.00000
      7      -6.3610      2.00000
      8      -5.8036      2.00000
      9      -5.2512      2.00000
     10      -5.0015      2.00000
     11      -4.1017      2.00000
     12      -3.6710      2.00000
     13      -3.0630      2.00000
     14      -2.7839      2.00000
     15      -2.5355      2.00000
     16      -2.4535      2.00000
     17      -2.1971      2.00000
     18      -0.4178      0.00000
     19       0.8607      0.00000
     20       3.3262      0.00000
     21       4.4916      0.00000
     22       4.9152      0.00000

 k-point    53 :       0.5000   -0.2500    0.0000
  band No.  band energies     occupation 
      1     -17.2138      2.00000
      2     -17.0420      2.00000
      3      -7.5901      2.00000
      4      -7.1277      2.00000
      5      -7.0759      2.00000
      6      -6.3748      2.00000
      7      -6.2550      2.00000
      8      -5.9141      2.00000
      9      -5.4125      2.00000
     10      -5.1976      2.00000
     11      -3.8656      2.00000
     12      -3.5034      2.00000
     13      -3.2878      2.00000
     14      -3.0801      2.00000
     15      -3.0121      2.00000
     16      -2.4266      2.00000
     17      -2.0901      2.00000
     18      -0.3479      0.00000
     19       1.2478      0.00000
     20       2.9873      0.00000
     21       4.5413      0.00000
     22       5.5149      0.00000

 k-point    54 :      -0.3750   -0.2500    0.0000
  band No.  band energies     occupation 
      1     -17.1709      2.00000
      2     -16.9815      2.00000
      3      -7.3348      2.00000
      4      -7.3278      2.00000
      5      -6.9278      2.00000
      6      -6.6709      2.00000
      7      -6.4466      2.00000
      8      -5.7247      2.00000
      9      -5.4079      2.00000
     10      -4.8394      2.00000
     11      -4.3065      2.00000
     12      -3.7358      2.00000
     13      -3.4265      2.00000
     14      -3.0747      2.00000
     15      -2.7111      2.00000
     16      -2.4119      2.00000
     17      -2.1525      2.00000
     18      -0.2035      0.00000
     19       1.4179      0.00000
     20       2.3491      0.00000
     21       5.0800      0.00000
     22       5.4653      0.00000

 k-point    55 :      -0.2500   -0.2500    0.0000
  band No.  band energies     occupation 
      1     -17.2138      2.00000
      2     -17.0420      2.00000
      3      -7.5901      2.00000
      4      -7.1277      2.00000
      5      -7.0759      2.00000
      6      -6.3748      2.00000
      7      -6.2550      2.00000
      8      -5.9141      2.00000
      9      -5.4125      2.00000
     10      -5.1976      2.00000
     11      -3.8656      2.00000
     12      -3.5034      2.00000
     13      -3.2878      2.00000
     14      -3.0801      2.00000
     15      -3.0121      2.00000
     16      -2.4266      2.00000
     17      -2.0901      2.00000
     18      -0.3479      0.00000
     19       1.2478      0.00000
     20       2.9873      0.00000
     21       4.5413      0.00000
     22       5.5149      0.00000

 k-point    56 :      -0.1250   -0.2500    0.0000
  band No.  band energies     occupation 
      1     -17.3181      2.00000
      2     -17.1820      2.00000
      3      -7.7445      2.00000
      4      -7.2205      2.00000
      5      -6.7169      2.00000
      6      -6.5534      2.00000
      7      -6.3610      2.00000
      8      -5.8036      2.00000
      9      -5.2512      2.00000
     10      -5.0015      2.00000
     11      -4.1017      2.00000
     12      -3.6710      2.00000
     13      -3.0630      2.00000
     14      -2.7839      2.00000
     15      -2.5355      2.00000
     16      -2.4535      2.00000
     17      -2.1971      2.00000
     18      -0.4178      0.00000
     19       0.8607      0.00000
     20       3.3262      0.00000
     21       4.4916      0.00000
     22       4.9152      0.00000

 k-point    57 :      -0.0000   -0.1250    0.0000
  band No.  band energies     occupation 
      1     -17.5938      2.00000
      2     -17.4659      2.00000
      3      -8.0072      2.00000
      4      -7.0471      2.00000
      5      -6.9362      2.00000
      6      -6.6756      2.00000
      7      -6.2251      2.00000
      8      -5.7851      2.00000
      9      -4.8436      2.00000
     10      -4.7462      2.00000
     11      -4.0137      2.00000
     12      -3.0439      2.00000
     13      -2.6904      2.00000
     14      -2.4817      2.00000
     15      -2.4564      2.00000
     16      -2.3981      2.00000
     17      -2.0912      2.00000
     18      -0.3719      0.00000
     19      -0.2819      0.00000
     20       2.7425      0.00000
     21       3.5146      0.00000
     22       4.1065      0.00000

 k-point    58 :       0.1250   -0.1250    0.0000
  band No.  band energies     occupation 
      1     -17.5938      2.00000
      2     -17.4659      2.00000
      3      -8.0072      2.00000
      4      -7.0471      2.00000
      5      -6.9363      2.00000
      6      -6.6756      2.00000
      7      -6.2251      2.00000
      8      -5.7851      2.00000
      9      -4.8436      2.00000
     10      -4.7462      2.00000
     11      -4.0137      2.00000
     12      -3.0439      2.00000
     13      -2.6904      2.00000
     14      -2.4817      2.00000
     15      -2.4564      2.00000
     16      -2.3981      2.00000
     17      -2.0912      2.00000
     18      -0.3719      0.00000
     19      -0.2819      0.00000
     20       2.7425      0.00000
     21       3.5146      0.00000
     22       4.1065      0.00000

 k-point    59 :       0.2500   -0.1250    0.0000
  band No.  band energies     occupation 
      1     -17.4741      2.00000
      2     -17.3596      2.00000
      3      -7.8158      2.00000
      4      -7.0991      2.00000
      5      -6.9420      2.00000
      6      -6.4681      2.00000
      7      -6.3561      2.00000
      8      -5.7866      2.00000
      9      -5.0421      2.00000
     10      -4.9412      2.00000
     11      -4.3627      2.00000
     12      -3.1395      2.00000
     13      -2.8645      2.00000
     14      -2.5852      2.00000
     15      -2.4784      2.00000
     16      -2.3952      2.00000
     17      -2.0489      2.00000
     18      -0.3756      0.00000
     19       0.0742      0.00000
     20       3.5915      0.00000
     21       3.9661      0.00000
     22       4.4594      0.00000

 k-point    60 :       0.3750   -0.1250    0.0000
  band No.  band energies     occupation 
      1     -17.3181      2.00000
      2     -17.1820      2.00000
      3      -7.7445      2.00000
      4      -7.2205      2.00000
      5      -6.7169      2.00000
      6      -6.5534      2.00000
      7      -6.3610      2.00000
      8      -5.8036      2.00000
      9      -5.2512      2.00000
     10      -5.0015      2.00000
     11      -4.1017      2.00000
     12      -3.6710      2.00000
     13      -3.0630      2.00000
     14      -2.7839      2.00000
     15      -2.5355      2.00000
     16      -2.4535      2.00000
     17      -2.1971      2.00000
     18      -0.4178      0.00000
     19       0.8607      0.00000
     20       3.3262      0.00000
     21       4.4916      0.00000
     22       4.9152      0.00000

 k-point    61 :       0.5000   -0.1250    0.0000
  band No.  band energies     occupation 
      1     -17.2124      2.00000
      2     -17.0409      2.00000
      3      -7.7672      2.00000
      4      -7.4550      2.00000
      5      -6.6866      2.00000
      6      -6.4852      2.00000
      7      -6.2878      2.00000
      8      -5.9554      2.00000
      9      -5.1377      2.00000
     10      -4.7277      2.00000
     11      -3.9002      2.00000
     12      -3.4571      2.00000
     13      -3.3227      2.00000
     14      -3.0838      2.00000
     15      -2.9846      2.00000
     16      -2.5460      2.00000
     17      -2.3816      2.00000
     18      -0.3271      0.00000
     19       1.2017      0.00000
     20       2.5994      0.00000
     21       4.8531      0.00000
     22       5.1770      0.00000

 k-point    62 :      -0.3750   -0.1250    0.0000
  band No.  band energies     occupation 
      1     -17.2124      2.00000
      2     -17.0409      2.00000
      3      -7.7672      2.00000
      4      -7.4550      2.00000
      5      -6.6866      2.00000
      6      -6.4852      2.00000
      7      -6.2878      2.00000
      8      -5.9554      2.00000
      9      -5.1377      2.00000
     10      -4.7277      2.00000
     11      -3.9002      2.00000
     12      -3.4571      2.00000
     13      -3.3227      2.00000
     14      -3.0838      2.00000
     15      -2.9846      2.00000
     16      -2.5460      2.00000
     17      -2.3816      2.00000
     18      -0.3271      0.00000
     19       1.2017      0.00000
     20       2.5994      0.00000
     21       4.8531      0.00000
     22       5.1770      0.00000

 k-point    63 :      -0.2500   -0.1250    0.0000
  band No.  band energies     occupation 
      1     -17.3181      2.00000
      2     -17.1820      2.00000
      3      -7.7445      2.00000
      4      -7.2205      2.00000
      5      -6.7169      2.00000
      6      -6.5534      2.00000
      7      -6.3610      2.00000
      8      -5.8036      2.00000
      9      -5.2512      2.00000
     10      -5.0015      2.00000
     11      -4.1017      2.00000
     12      -3.6710      2.00000
     13      -3.0630      2.00000
     14      -2.7839      2.00000
     15      -2.5355      2.00000
     16      -2.4535      2.00000
     17      -2.1971      2.00000
     18      -0.4178      0.00000
     19       0.8607      0.00000
     20       3.3262      0.00000
     21       4.4916      0.00000
     22       4.9152      0.00000

 k-point    64 :      -0.1250   -0.1250    0.0000
  band No.  band energies     occupation 
      1     -17.4741      2.00000
      2     -17.3596      2.00000
      3      -7.8158      2.00000
      4      -7.0991      2.00000
      5      -6.9420      2.00000
      6      -6.4681      2.00000
      7      -6.3561      2.00000
      8      -5.7866      2.00000
      9      -5.0421      2.00000
     10      -4.9412      2.00000
     11      -4.3628      2.00000
     12      -3.1395      2.00000
     13      -2.8645      2.00000
     14      -2.5852      2.00000
     15      -2.4784      2.00000
     16      -2.3952      2.00000
     17      -2.0489      2.00000
     18      -0.3756      0.00000
     19       0.0742      0.00000
     20       3.5915      0.00000
     21       3.9661      0.00000
     22       4.4594      0.00000


--------------------------------------------------------------------------------------------------------


 soft charge-density along one line, spin component           1
         0         1         2         3         4         5         6         7         8         9
 total charge-density along one line
 
 pseudopotential strength for first ion, spin component:           1
 49.294  51.734  -0.000   0.035   0.000  -0.000   0.043   0.000
 51.734  54.298  -0.000   0.037   0.000  -0.000   0.046   0.000
 -0.000  -0.000   9.301  -0.000  -0.000  11.529  -0.000  -0.000
  0.035   0.037  -0.000   9.299   0.000  -0.000  11.527   0.000
  0.000   0.000  -0.000   0.000   9.301  -0.000   0.000  11.529
 -0.000  -0.000  11.529  -0.000  -0.000  14.306  -0.000  -0.000
  0.043   0.046  -0.000  11.527   0.000  -0.000  14.304   0.000
  0.000   0.000  -0.000   0.000  11.529  -0.000   0.000  14.306
 total augmentation occupancy for first ion, spin component:           1
  8.702  -6.673   0.000  -2.948  -0.000  -0.000   1.267   0.000
 -6.673   6.597  -0.000   2.770   0.000   0.000  -1.256  -0.000
  0.000  -0.000   3.434  -0.000   0.000  -0.984   0.000  -0.000
 -2.948   2.770  -0.000   3.191   0.000   0.000  -0.837  -0.000
 -0.000   0.000   0.000   0.000   3.434  -0.000  -0.000  -0.984
 -0.000   0.000  -0.984   0.000  -0.000   0.448  -0.000   0.000
  1.267  -1.256   0.000  -0.837  -0.000  -0.000   0.411   0.000
  0.000  -0.000  -0.000  -0.000  -0.984   0.000   0.000   0.448


------------------------ aborting loop because EDIFF is reached ----------------------------------------


    CHARGE:  cpu time    0.3644: real time    0.3644
    FORLOC:  cpu time    0.0298: real time    0.0298
    FORNL :  cpu time    0.5072: real time    0.5072
    STRESS:  cpu time    2.7332: real time    2.7334
    FORCOR:  cpu time    0.3122: real time    0.3123
    FORHAR:  cpu time    0.0660: real time    0.0660
    MIXING:  cpu time    0.0200: real time    0.0200
    OFIELD:  cpu time    0.0001: real time    0.0001

 ---------------------------------------------------------------------------------------------

         DFTD3 V3.0 Rev 1        
 Edisp (eV)   -1.23041

 E6    (eV) :    -0.3539
 E8    (eV) :    -0.8765
 % E8        : 71.24
    FORVDW:  cpu time    0.0204: real time    0.0204

  FORCE on cell =-STRESS in cart. coord.  units (eV):
  Direction    XX          YY          ZZ          XY          YZ          ZX
  --------------------------------------------------------------------------------------
  Alpha Z    41.93281    41.93281    41.93281
  Ewald    7446.96224  7446.96229 -8964.23797     0.00013     0.00003    -0.00004
  Hartree  7922.72252  7922.72254 -7739.03446     0.00005     0.00001    -0.00001
  E(xc)    -141.01180  -141.01180  -141.52089     0.00000     0.00000    -0.00000
  Local  -15996.09328-15996.09330 16068.47868    -0.00012    -0.00003     0.00005
  n-local   142.21726   142.21726   144.03669    -0.00000     0.00000     0.00000
  augment    78.86634    78.86631    79.82627    -0.00003    -0.00000     0.00000
  Kinetic   505.20501   505.20500   510.64331    -0.00002    -0.00000     0.00001
  Fock        0.00000     0.00000     0.00000     0.00000     0.00000     0.00000
  vdW        -0.80148    -0.80148    -0.19521    -0.00000    -0.00000     0.00000
  -------------------------------------------------------------------------------------
  Total      -0.00038    -0.00038    -0.07077     0.00000     0.00000     0.00000
  in kB      -0.00261    -0.00261    -0.48981     0.00000     0.00000     0.00003
  external pressure =       -0.17 kB  Pullay stress =        0.00 kB


 VOLUME and BASIS-vectors are now :
 -----------------------------------------------------------------------------
  energy-cutoff  :      400.00
  volume of cell :      231.48
      direct lattice vectors                 reciprocal lattice vectors
     3.655528009 -0.036629028  0.000000000     0.275113245  0.155182161  0.000000000
    -1.796041249  3.184094946  0.000000000     0.003164834  0.315846163  0.000000000
     0.000000000  0.000000000 20.000000000     0.000000000  0.000000000  0.050000000

  length of vectors
     3.655711519  3.655711256 20.000000000     0.315861996  0.315862019  0.050000000


 FORCES acting on ions
    electron-ion (+dipol)            ewald-force                    non-local-force                 convergence-correction
 -----------------------------------------------------------------------------------------------
   0.822E-04 -.577E-04 0.982E+03   -.907E-04 0.636E-04 -.987E+03   0.808E-05 -.617E-05 0.510E+01   0.264E-07 -.150E-07 -.168E-02
   0.840E-04 -.574E-04 -.991E+03   -.889E-04 0.611E-04 0.994E+03   0.292E-05 -.167E-05 -.262E+01   -.212E-07 -.170E-07 -.252E-02
   -.747E-04 0.529E-04 -.562E+03   0.691E-04 -.481E-04 0.556E+03   0.429E-05 -.381E-05 0.645E+01   0.625E-07 -.832E-07 -.149E-01
   -.121E-03 0.829E-04 0.569E+03   0.110E-03 -.767E-04 -.563E+03   0.954E-05 -.604E-05 -.631E+01   -.501E-07 0.415E-07 -.147E-01
 -----------------------------------------------------------------------------------------------
   -.291E-04 0.207E-04 -.258E+01   -.713E-14 0.183E-13 -.114E-12   0.248E-04 -.177E-04 0.261E+01   0.175E-07 -.737E-07 -.338E-01
 
 
 POSITION                                       TOTAL-FORCE (eV/Angst)
 -----------------------------------------------------------------------------------
     -0.89783      1.59192      3.39123         0.000001     -0.000001      0.001287
     -0.89783      1.59192      7.69278        -0.000001      0.000001     -0.000797
      0.91936      0.51835      6.20213        -0.000000      0.000000     -0.000542
      0.94051      2.62887      4.71852         0.000000     -0.000001      0.000052
 -----------------------------------------------------------------------------------
    total drift:                               -0.000004      0.000003     -0.000547


--------------------------------------------------------------------------------------------------------



  FREE ENERGIE OF THE ION-ELECTRON SYSTEM (eV)
  ---------------------------------------------------
  free  energy   TOTEN  =       -17.78619169 eV

  energy  without entropy=      -17.78619169  energy(sigma->0) =      -17.78619169
 
 d Force =-0.1266976E-06[-0.169E-06,-0.840E-07]  d Energy =-0.2695850E-06 0.143E-06
 d Force = 0.1744811E+00[ 0.174E+00, 0.174E+00]  d Ewald  =-0.6710300E-01 0.242E+00


--------------------------------------------------------------------------------------------------------


    POTLOK:  cpu time    0.3189: real time    0.3189


--------------------------------------------------------------------------------------------------------


 Quasi-Newton relaxation of ions (Broydens 2nd method)
  g(Force)  = 0.125E-06   g(Stress)= 0.343E-08

 retain information from N=  1 steps
 eigenvalues of (default step * inverse Hessian matrix)
  average eigenvalue of G=   0.2503
 eigenvalue spectrum of G is  0.2503


--------------------------------------------------------------------------------------------------------


  
 reached required accuracy - stopping structural energy minimisation
 writing wavefunctions
     LOOP+:  cpu time   19.8729: real time   19.9606
    4ORBIT:  cpu time    0.0000: real time    0.0000

 total amount of memory used by VASP MPI-rank0   229299. kBytes
=======================================================================

   base      :      30000. kBytes
   nonl-proj :     116168. kBytes
   fftplans  :      11208. kBytes
   grid      :      23989. kBytes
   one-center:         62. kBytes
   wavefun   :      47872. kBytes
 
  
  
 General timing and accounting informations for this job:
 ========================================================
  
                  Total CPU time used (sec):      634.325
                            User time (sec):      628.543
                          System time (sec):        5.782
                         Elapsed time (sec):      635.955
  
                   Maximum memory used (kb):      371060.
                   Average memory used (kb):           0.
  
                          Minor page faults:        99529
                          Major page faults:            1
                 Voluntary context switches:          116
