<?xml version="1.0" encoding="ISO-8859-1"?>
<modeling>
 <generator>
  <i name="program" type="string">vasp </i>
  <i name="version" type="string">5.4.4.16052018  </i>
  <i name="subversion" type="string">(build Dec 07 2020 11:33:42) complex                         parallel </i>
  <i name="platform" type="string">LinuxIFC </i>
  <i name="date" type="string">2020 12 16 </i>
  <i name="time" type="string">02:31:29 </i>
 </generator>
 <incar>
  <i type="string" name="PREC">accurate</i>
  <i type="string" name="ALGO"> Normal</i>
  <i type="int" name="IBRION">     1</i>
  <i name="EDIFF">      0.00000005</i>
  <i type="int" name="NSW">   100</i>
  <i type="int" name="ISIF">     3</i>
  <i type="int" name="ISYM">    -1</i>
  <i name="SYMPREC">      0.00000000</i>
  <i name="ENCUT">    400.00000000</i>
  <i type="logical" name="LREAL"> F  </i>
  <i type="int" name="ISMEAR">     0</i>
  <i name="SIGMA">      0.10000000</i>
  <v type="int" name="KPOINT_BSE">    -1     0     0     0</v>
  <i type="logical" name="LHFCALC"> F  </i>
  <i type="logical" name="LDIPOL"> T  </i>
  <i type="int" name="IDIPOL">     3</i>
 </incar>
 <structure name="primitive_cell" >
  <crystal>
   <varray name="basis" >
    <v>       3.63310530      -0.03640515       0.00000000 </v>
    <v>      -1.78502519       3.16456268       0.00000000 </v>
    <v>       0.00000000       0.00000000      20.00000000 </v>
   </varray>
   <i name="volume">    228.64410667 </i>
   <varray name="rec_basis" >
    <v>       0.27681122       0.15614006       0.00000000 </v>
    <v>       0.00318444       0.31779567       0.00000000 </v>
    <v>       0.00000000       0.00000000       0.05000000 </v>
   </varray>
  </crystal>
  <varray name="positions" >
   <v>       0.00003263       0.49996204       0.16835154 </v>
   <v>      -0.33330109      -0.16670540       0.23573142 </v>
   <v>       0.33336560       0.16662714       0.31043849 </v>
   <v>       0.00003225       0.49995986       0.38571185 </v>
  </varray>
 </structure>
 <varray name="primitive_index" >
  <v type="int" >        1 </v>
  <v type="int" >        4 </v>
  <v type="int" >        3 </v>
  <v type="int" >        2 </v>
 </varray>
 <kpoints>
  <generation param="Gamma">
   <v type="int" name="divisions">       8        8        1 </v>
   <v name="usershift">      0.00000000       0.00000000       0.00000000 </v>
   <v name="genvec1">      0.12500000       0.00000000       0.00000000 </v>
   <v name="genvec2">      0.00000000       0.12500000       0.00000000 </v>
   <v name="genvec3">      0.00000000       0.00000000       1.00000000 </v>
   <v name="shift">      0.00000000       0.00000000       0.00000000 </v>
  </generation>
  <varray name="kpointlist" >
   <v>       0.00000000       0.00000000       0.00000000 </v>
   <v>       0.12500000      -0.00000000       0.00000000 </v>
   <v>       0.25000000      -0.00000000       0.00000000 </v>
   <v>       0.37500000      -0.00000000       0.00000000 </v>
   <v>       0.50000000      -0.00000000       0.00000000 </v>
   <v>      -0.37500000       0.00000000       0.00000000 </v>
   <v>      -0.25000000       0.00000000       0.00000000 </v>
   <v>      -0.12500000       0.00000000       0.00000000 </v>
   <v>       0.00000000       0.12500000       0.00000000 </v>
   <v>       0.12500000       0.12500000       0.00000000 </v>
   <v>       0.25000000       0.12500000       0.00000000 </v>
   <v>       0.37500000       0.12500000       0.00000000 </v>
   <v>       0.50000000       0.12500000       0.00000000 </v>
   <v>      -0.37500000       0.12500000       0.00000000 </v>
   <v>      -0.25000000       0.12500000       0.00000000 </v>
   <v>      -0.12500000       0.12500000       0.00000000 </v>
   <v>       0.00000000       0.25000000       0.00000000 </v>
   <v>       0.12500000       0.25000000       0.00000000 </v>
   <v>       0.25000000       0.25000000       0.00000000 </v>
   <v>       0.37500000       0.25000000       0.00000000 </v>
   <v>       0.50000000       0.25000000       0.00000000 </v>
   <v>      -0.37500000       0.25000000       0.00000000 </v>
   <v>      -0.25000000       0.25000000       0.00000000 </v>
   <v>      -0.12500000       0.25000000       0.00000000 </v>
   <v>       0.00000000       0.37500000       0.00000000 </v>
   <v>       0.12500000       0.37500000       0.00000000 </v>
   <v>       0.25000000       0.37500000       0.00000000 </v>
   <v>       0.37500000       0.37500000       0.00000000 </v>
   <v>       0.50000000       0.37500000       0.00000000 </v>
   <v>      -0.37500000       0.37500000       0.00000000 </v>
   <v>      -0.25000000       0.37500000       0.00000000 </v>
   <v>      -0.12500000       0.37500000       0.00000000 </v>
   <v>       0.00000000       0.50000000       0.00000000 </v>
   <v>       0.12500000       0.50000000       0.00000000 </v>
   <v>       0.25000000       0.50000000       0.00000000 </v>
   <v>       0.37500000       0.50000000       0.00000000 </v>
   <v>       0.50000000       0.50000000       0.00000000 </v>
   <v>      -0.37500000       0.50000000       0.00000000 </v>
   <v>      -0.25000000       0.50000000       0.00000000 </v>
   <v>      -0.12500000       0.50000000       0.00000000 </v>
   <v>      -0.00000000      -0.37500000       0.00000000 </v>
   <v>       0.12500000      -0.37500000       0.00000000 </v>
   <v>       0.25000000      -0.37500000       0.00000000 </v>
   <v>       0.37500000      -0.37500000       0.00000000 </v>
   <v>       0.50000000      -0.37500000       0.00000000 </v>
   <v>      -0.37500000      -0.37500000       0.00000000 </v>
   <v>      -0.25000000      -0.37500000       0.00000000 </v>
   <v>      -0.12500000      -0.37500000       0.00000000 </v>
   <v>      -0.00000000      -0.25000000       0.00000000 </v>
   <v>       0.12500000      -0.25000000       0.00000000 </v>
   <v>       0.25000000      -0.25000000       0.00000000 </v>
   <v>       0.37500000      -0.25000000       0.00000000 </v>
   <v>       0.50000000      -0.25000000       0.00000000 </v>
   <v>      -0.37500000      -0.25000000       0.00000000 </v>
   <v>      -0.25000000      -0.25000000       0.00000000 </v>
   <v>      -0.12500000      -0.25000000       0.00000000 </v>
   <v>      -0.00000000      -0.12500000       0.00000000 </v>
   <v>       0.12500000      -0.12500000       0.00000000 </v>
   <v>       0.25000000      -0.12500000       0.00000000 </v>
   <v>       0.37500000      -0.12500000       0.00000000 </v>
   <v>       0.50000000      -0.12500000       0.00000000 </v>
   <v>      -0.37500000      -0.12500000       0.00000000 </v>
   <v>      -0.25000000      -0.12500000       0.00000000 </v>
   <v>      -0.12500000      -0.12500000       0.00000000 </v>
  </varray>
  <varray name="weights" >
   <v>       0.01562500 </v>
   <v>       0.01562500 </v>
   <v>       0.01562500 </v>
   <v>       0.01562500 </v>
   <v>       0.01562500 </v>
   <v>       0.01562500 </v>
   <v>       0.01562500 </v>
   <v>       0.01562500 </v>
   <v>       0.01562500 </v>
   <v>       0.01562500 </v>
   <v>       0.01562500 </v>
   <v>       0.01562500 </v>
   <v>       0.01562500 </v>
   <v>       0.01562500 </v>
   <v>       0.01562500 </v>
   <v>       0.01562500 </v>
   <v>       0.01562500 </v>
   <v>       0.01562500 </v>
   <v>       0.01562500 </v>
   <v>       0.01562500 </v>
   <v>       0.01562500 </v>
   <v>       0.01562500 </v>
   <v>       0.01562500 </v>
   <v>       0.01562500 </v>
   <v>       0.01562500 </v>
   <v>       0.01562500 </v>
   <v>       0.01562500 </v>
   <v>       0.01562500 </v>
   <v>       0.01562500 </v>
   <v>       0.01562500 </v>
   <v>       0.01562500 </v>
   <v>       0.01562500 </v>
   <v>       0.01562500 </v>
   <v>       0.01562500 </v>
   <v>       0.01562500 </v>
   <v>       0.01562500 </v>
   <v>       0.01562500 </v>
   <v>       0.01562500 </v>
   <v>       0.01562500 </v>
   <v>       0.01562500 </v>
   <v>       0.01562500 </v>
   <v>       0.01562500 </v>
   <v>       0.01562500 </v>
   <v>       0.01562500 </v>
   <v>       0.01562500 </v>
   <v>       0.01562500 </v>
   <v>       0.01562500 </v>
   <v>       0.01562500 </v>
   <v>       0.01562500 </v>
   <v>       0.01562500 </v>
   <v>       0.01562500 </v>
   <v>       0.01562500 </v>
   <v>       0.01562500 </v>
   <v>       0.01562500 </v>
   <v>       0.01562500 </v>
   <v>       0.01562500 </v>
   <v>       0.01562500 </v>
   <v>       0.01562500 </v>
   <v>       0.01562500 </v>
   <v>       0.01562500 </v>
   <v>       0.01562500 </v>
   <v>       0.01562500 </v>
   <v>       0.01562500 </v>
   <v>       0.01562500 </v>
  </varray>
 </kpoints>
 <parameters>
  <separator name="general" >
   <i type="string" name="SYSTEM">unknown system</i>
   <i type="logical" name="LCOMPAT"> F  </i>
  </separator>
  <separator name="electronic" >
   <i type="string" name="PREC">accura</i>
   <i name="ENMAX">    400.00000000</i>
   <i name="ENAUG">    503.85200000</i>
   <i name="EDIFF">      0.00000005</i>
   <i type="int" name="IALGO">    38</i>
   <i type="int" name="IWAVPR">    11</i>
   <i type="int" name="NBANDS">    22</i>
   <i name="NELECT">     34.00000000</i>
   <i type="int" name="TURBO">     0</i>
   <i type="int" name="IRESTART">     0</i>
   <i type="int" name="NREBOOT">     0</i>
   <i type="int" name="NMIN">     0</i>
   <i name="EREF">      0.00000000</i>
   <separator name="electronic smearing" >
    <i type="int" name="ISMEAR">     0</i>
    <i name="SIGMA">      0.10000000</i>
    <i name="KSPACING">      0.50000000</i>
    <i type="logical" name="KGAMMA"> T  </i>
   </separator>
   <separator name="electronic projectors" >
    <i type="logical" name="LREAL"> F  </i>
    <v name="ROPT">      0.00000000      0.00000000      0.00000000</v>
    <i type="int" name="LMAXPAW">  -100</i>
    <i type="int" name="LMAXMIX">     2</i>
    <i type="logical" name="NLSPLINE"> F  </i>
   </separator>
   <separator name="electronic startup" >
    <i type="int" name="ISTART">     0</i>
    <i type="int" name="ICHARG">     2</i>
    <i type="int" name="INIWAV">     1</i>
   </separator>
   <separator name="electronic spin" >
    <i type="int" name="ISPIN">     1</i>
    <i type="logical" name="LNONCOLLINEAR"> F  </i>
    <v name="MAGMOM">      1.00000000      1.00000000      1.00000000      1.00000000</v>
    <i name="NUPDOWN">     -1.00000000</i>
    <i type="logical" name="LSORBIT"> F  </i>
    <v name="SAXIS">      0.00000000      0.00000000      1.00000000</v>
    <i type="logical" name="LSPIRAL"> F  </i>
    <v name="QSPIRAL">      0.00000000      0.00000000      0.00000000</v>
    <i type="logical" name="LZEROZ"> F  </i>
   </separator>
   <separator name="electronic exchange-correlation" >
    <i type="logical" name="LASPH"> F  </i>
    <i type="logical" name="LMETAGGA"> F  </i>
   </separator>
   <separator name="electronic convergence" >
    <i type="int" name="NELM">    60</i>
    <i type="int" name="NELMDL">    -5</i>
    <i type="int" name="NELMIN">     2</i>
    <i name="ENINI">    400.00000000</i>
    <separator name="electronic convergence detail" >
     <i type="logical" name="LDIAG"> T  </i>
     <i type="logical" name="LSUBROT"> F  </i>
     <i name="WEIMIN">      0.00100000</i>
     <i name="EBREAK">      0.00000000</i>
     <i name="DEPER">      0.30000000</i>
     <i type="int" name="NRMM">     4</i>
     <i name="TIME">      0.40000000</i>
    </separator>
   </separator>
   <separator name="electronic mixer" >
    <i name="AMIX">      0.40000000</i>
    <i name="BMIX">      1.00000000</i>
    <i name="AMIN">      0.10000000</i>
    <i name="AMIX_MAG">      1.60000000</i>
    <i name="BMIX_MAG">      1.00000000</i>
    <separator name="electronic mixer details" >
     <i type="int" name="IMIX">     4</i>
     <i type="logical" name="MIXFIRST"> F  </i>
     <i type="int" name="MAXMIX">   -45</i>
     <i name="WC">    100.00000000</i>
     <i type="int" name="INIMIX">     1</i>
     <i type="int" name="MIXPRE">     1</i>
     <i type="int" name="MREMOVE">     5</i>
    </separator>
   </separator>
   <separator name="electronic dipolcorrection" >
    <i type="logical" name="LDIPOL"> T  </i>
    <i type="logical" name="LMONO"> F  </i>
    <i type="int" name="IDIPOL">     3</i>
    <i name="EPSILON">      1.00000000</i>
    <v name="DIPOL">   -100.00000000   -100.00000000   -100.00000000</v>
    <i name="EFIELD">      0.00000000</i>
   </separator>
  </separator>
  <separator name="grids" >
   <i type="int" name="NGX">    24</i>
   <i type="int" name="NGY">    24</i>
   <i type="int" name="NGZ">   140</i>
   <i type="int" name="NGXF">    48</i>
   <i type="int" name="NGYF">    48</i>
   <i type="int" name="NGZF">   280</i>
   <i type="logical" name="ADDGRID"> F  </i>
  </separator>
  <separator name="ionic" >
   <i type="int" name="NSW">   100</i>
   <i type="int" name="IBRION">     1</i>
   <i type="int" name="MDALGO">     0</i>
   <i type="int" name="ISIF">     3</i>
   <i name="PSTRESS">      0.00000000</i>
   <i name="EDIFFG">      0.00000050</i>
   <i type="int" name="NFREE">     0</i>
   <i name="POTIM">      0.50000000</i>
   <i name="SMASS">     -3.00000000</i>
   <i name="SCALEE">      1.00000000</i>
  </separator>
  <separator name="ionic md" >
   <i name="TEBEG">      0.00010000</i>
   <i name="TEEND">      0.00010000</i>
   <i type="int" name="NBLOCK">     1</i>
   <i type="int" name="KBLOCK">   100</i>
   <i type="int" name="NPACO">   256</i>
   <i name="APACO">     16.00000000</i>
  </separator>
  <separator name="symmetry" >
   <i type="int" name="ISYM">    -1</i>
   <i name="SYMPREC">      0.00000000</i>
  </separator>
  <separator name="dos" >
   <i type="int" name="LORBIT">     0</i>
   <v name="RWIGS">     -1.00000000     -1.00000000     -1.00000000</v>
   <i type="int" name="NEDOS">   301</i>
   <i name="EMIN">     10.00000000</i>
   <i name="EMAX">    -10.00000000</i>
   <i name="EFERMI">      0.00000000</i>
  </separator>
  <separator name="writing" >
   <i type="int" name="NWRITE">     2</i>
   <i type="logical" name="LWAVE"> T  </i>
   <i type="logical" name="LDOWNSAMPLE"> F  </i>
   <i type="logical" name="LCHARG"> T  </i>
   <i type="logical" name="LPARD"> F  </i>
   <i type="logical" name="LVTOT"> F  </i>
   <i type="logical" name="LVHAR"> F  </i>
   <i type="logical" name="LELF"> F  </i>
   <i type="logical" name="LOPTICS"> F  </i>
   <v name="STM">      0.00000000      0.00000000      0.00000000      0.00000000      0.00000000      0.00000000      0.00000000</v>
  </separator>
  <separator name="performance" >
   <i type="int" name="NPAR">     2</i>
   <i type="int" name="NSIM">     4</i>
   <i type="int" name="NBLK">    -1</i>
   <i type="logical" name="LPLANE"> T  </i>
   <i type="logical" name="LSCALAPACK"> T  </i>
   <i type="logical" name="LSCAAWARE"> F  </i>
   <i type="logical" name="LSCALU"> F  </i>
   <i type="logical" name="LASYNC"> F  </i>
   <i type="logical" name="LORBITALREAL"> F  </i>
  </separator>
  <separator name="miscellaneous" >
   <i type="int" name="IDIOT">     3</i>
   <i type="int" name="ISPECIAL">     0</i>
   <i type="logical" name="LMUSIC"> F  </i>
   <v name="POMASS">     35.45300000     79.90400000    195.08000000</v>
   <v name="DARWINR">      0.00000000      0.00000000      0.00000000</v>
   <v name="DARWINV">      1.00000000      1.00000000      1.00000000</v>
   <i type="logical" name="LCORR"> T  </i>
  </separator>
  <i type="logical" name="GGA_COMPAT"> T  </i>
  <i type="logical" name="LBERRY"> F  </i>
  <i type="int" name="ICORELEVEL">     0</i>
  <i type="logical" name="LDAU"> F  </i>
  <i type="int" name="I_CONSTRAINED_M">     0</i>
  <separator name="electronic exchange-correlation" >
   <i type="string" name="GGA">--</i>
   <i type="int" name="VOSKOWN">     0</i>
   <i type="logical" name="LHFCALC"> F  </i>
   <i type="string" name="PRECFOCK"></i>
   <i type="logical" name="LSYMGRAD"> F  </i>
   <i type="logical" name="LHFONE"> F  </i>
   <i type="logical" name="LRHFCALC"> F  </i>
   <i type="logical" name="LTHOMAS"> F  </i>
   <i type="logical" name="LMODELHF"> F  </i>
   <i name="ENCUT4O">     -1.00000000</i>
   <i type="int" name="EXXOEP">     0</i>
   <i type="int" name="FOURORBIT">     0</i>
   <i name="AEXX">      0.00000000</i>
   <i name="HFALPHA">      0.00000000</i>
   <i name="MCALPHA">      0.00000000</i>
   <i name="ALDAX">      1.00000000</i>
   <i name="AGGAX">      1.00000000</i>
   <i name="ALDAC">      1.00000000</i>
   <i name="AGGAC">      1.00000000</i>
   <i type="int" name="NKREDX">     1</i>
   <i type="int" name="NKREDY">     1</i>
   <i type="int" name="NKREDZ">     1</i>
   <i type="logical" name="SHIFTRED"> F  </i>
   <i type="logical" name="ODDONLY"> F  </i>
   <i type="logical" name="EVENONLY"> F  </i>
   <i type="int" name="LMAXFOCK">     0</i>
   <i type="int" name="NMAXFOCKAE">     0</i>
   <i type="logical" name="LFOCKAEDFT"> F  </i>
   <i name="HFSCREEN">      0.00000000</i>
   <i name="HFSCREENC">      0.00000000</i>
   <i type="int" name="NBANDSGWLOW">     0</i>
  </separator>
  <separator name="vdW DFT" >
   <i type="logical" name="LUSE_VDW"> F  </i>
   <i name="Zab_VDW">     -0.84910000</i>
   <i name="PARAM1">      0.12340000</i>
   <i name="PARAM2">      1.00000000</i>
   <i name="PARAM3">      0.00000000</i>
  </separator>
  <separator name="model GW" >
   <i type="int" name="MODEL_GW">     0</i>
   <i name="MODEL_EPS0">     34.29661600</i>
   <i name="MODEL_ALPHA">      1.00000000</i>
  </separator>
  <separator name="linear response parameters" >
   <i type="logical" name="LEPSILON"> F  </i>
   <i type="logical" name="LRPA"> F  </i>
   <i type="logical" name="LNABLA"> F  </i>
   <i type="logical" name="LVEL"> F  </i>
   <i type="int" name="KINTER">     0</i>
   <i name="CSHIFT">      0.10000000</i>
   <i name="OMEGAMAX">     -1.00000000</i>
   <i name="DEG_THRESHOLD">      0.00200000</i>
   <i name="RTIME">     -0.10000000</i>
   <i name="WPLASMAI">      0.00000000</i>
   <v name="DFIELD">      0.00000000      0.00000000      0.00000000</v>
   <v name="WPLASMA">      0.00000000      0.00000000      0.00000000      0.00000000      0.00000000      0.00000000      0.00000000      0.00000000      0.00000000</v>
  </separator>
  <separator name="orbital magnetization" >
   <i type="logical" name="NUCIND"> F  </i>
   <v name="MAGPOS">      0.00000000      0.00000000      0.00000000</v>
   <i type="logical" name="LNICSALL"> T  </i>
   <i type="logical" name="ORBITALMAG"> F  </i>
   <i type="logical" name="LMAGBLOCH"> F  </i>
   <i type="logical" name="LCHIMAG"> F  </i>
   <i type="logical" name="LGAUGE"> T  </i>
   <i type="int" name="MAGATOM">     0</i>
   <v name="MAGDIPOL">      0.00000000      0.00000000      0.00000000</v>
   <v name="AVECCONST">      0.00000000      0.00000000      0.00000000</v>
  </separator>
  <separator name="response functions" >
   <i type="logical" name="LADDER"> F  </i>
   <i type="logical" name="LRPAFORCE"> F  </i>
   <i type="logical" name="LFXC"> F  </i>
   <i type="logical" name="LHARTREE"> T  </i>
   <i type="int" name="IBSE">     0</i>
   <v type="int" name="KPOINT">    -1     0     0     0</v>
   <i type="logical" name="LTCTE"> F  </i>
   <i type="logical" name="LTETE"> F  </i>
   <i type="logical" name="LTRIPLET"> F  </i>
   <i type="logical" name="LFXCEPS"> F  </i>
   <i type="logical" name="LFXHEG"> F  </i>
   <i type="int" name="NATURALO">     2</i>
   <i type="logical" name="L2ORDER"> F  </i>
   <i type="logical" name="LMP2LT"> F  </i>
   <i type="logical" name="LUSEW"> F  </i>
   <i name="ENCUTGW">     -2.00000000</i>
   <i name="ENCUTGWSOFT">     -2.00000000</i>
   <i name="ENCUTLF">     -1.00000000</i>
   <i type="int" name="LMAXMP2">    -1</i>
   <i name="SCISSOR">      0.00000000</i>
   <i type="int" name="NOMEGA">     0</i>
   <i type="int" name="NOMEGAR">     0</i>
   <i type="int" name="NBANDSGW">    -1</i>
   <i type="int" name="NBANDSO">    -1</i>
   <i type="int" name="NBANDSV">    -1</i>
   <i type="int" name="NELM">     1</i>
   <i type="int" name="NELMHF">     1</i>
   <i type="int" name="DIM">     3</i>
   <i type="int" name="ANTIRES">     0</i>
   <i name="OMEGAMAX">    -30.00000000</i>
   <i name="OMEGAMIN">    -30.00000000</i>
   <i name="OMEGATL">   -200.00000000</i>
   <i type="int" name="OMEGAGRID">   140</i>
   <i name="CSHIFT">     -0.10000000</i>
   <i type="logical" name="SELFENERGY"> F  </i>
   <i type="logical" name="LSPECTRAL"> F  </i>
   <i type="logical" name="LSPECTRALGW"> F  </i>
   <i type="logical" name="LSINGLES"> F  </i>
   <i type="logical" name="LFERMIGW"> F  </i>
   <i type="logical" name="ODDONLYGW"> F  </i>
   <i type="logical" name="EVENONLYGW"> F  </i>
   <i type="int" name="NKREDLFX">     1</i>
   <i type="int" name="NKREDLFY">     1</i>
   <i type="int" name="NKREDLFZ">     1</i>
   <i type="int" name="MAXMEM">  2800</i>
   <i type="int" name="TELESCOPE">     0</i>
   <i type="int" name="TAUPAR">     1</i>
   <i type="int" name="OMEGAPAR">    -1</i>
   <i name="LAMBDA">      1.00000000</i>
  </separator>
  <separator name="External order field" >
   <i name="OFIELD_KAPPA">      0.00000000</i>
   <v name="OFIELD_K">      0.00000000      0.00000000      0.00000000</v>
   <i name="OFIELD_Q6_NEAR">      0.00000000</i>
   <i name="OFIELD_Q6_FAR">      0.00000000</i>
   <i name="OFIELD_A">      0.00000000</i>
  </separator>
 </parameters>
 <atominfo>
  <atoms>       4 </atoms>
  <types>       3 </types>
  <array name="atoms" >
   <dimension dim="1">ion</dimension>
   <field type="string">element</field>
   <field type="int">atomtype</field>
   <set>
    <rc><c>Cl</c><c>   1</c></rc>
    <rc><c>Br</c><c>   2</c></rc>
    <rc><c>Pt</c><c>   3</c></rc>
    <rc><c>Pt</c><c>   3</c></rc>
   </set>
  </array>
  <array name="atomtypes" >
   <dimension dim="1">type</dimension>
   <field type="int">atomspertype</field>
   <field type="string">element</field>
   <field>mass</field>
   <field>valence</field>
   <field type="string">pseudopotential</field>
   <set>
    <rc><c>   1</c><c>Cl</c><c>     35.45300000</c><c>      7.00000000</c><c>  PAW_PBE Cl 06Sep2000                  </c></rc>
    <rc><c>   1</c><c>Br</c><c>     79.90400000</c><c>      7.00000000</c><c>  PAW_PBE Br 06Sep2000                  </c></rc>
    <rc><c>   2</c><c>Pt</c><c>    195.08000000</c><c>     10.00000000</c><c>  PAW_PBE Pt 04Feb2005                  </c></rc>
   </set>
  </array>
 </atominfo>
 <structure name="initialpos" >
  <crystal>
   <varray name="basis" >
    <v>       3.63310530      -0.03640515       0.00000000 </v>
    <v>      -1.78502519       3.16456268       0.00000000 </v>
    <v>       0.00000000       0.00000000      20.00000000 </v>
   </varray>
   <i name="volume">    228.64410667 </i>
   <varray name="rec_basis" >
    <v>       0.27681122       0.15614006       0.00000000 </v>
    <v>       0.00318444       0.31779567       0.00000000 </v>
    <v>       0.00000000       0.00000000       0.05000000 </v>
   </varray>
  </crystal>
  <varray name="positions" >
   <v>       0.00003263       0.49996204       0.16835154 </v>
   <v>       0.00003225       0.49995986       0.38571185 </v>
   <v>       0.33336560       0.16662714       0.31043849 </v>
   <v>       0.66669891       0.83329460       0.23573142 </v>
  </varray>
 </structure>
 <calculation>
  <scstep>
   <time name="dav">    3.62    3.62</time>
   <time name="total">    3.91    3.91</time>
   <dipole>
    <v name="dipole">      0.00000000       0.00000000      -0.00002318 </v>
    <i name="Tr[quadrupol]">    -79.15717378 </i>
    <i name="Echarged">      0.00000000 </i>
    <i name="Edipol_quadrupol">      0.00000000 </i>
    <i name="Eion">      0.00000000 </i>
   </dipole>
   <energy>
    <i name="alphaZ">     42.45224435 </i>
    <i name="ewald">   5970.20326166 </i>
    <i name="hartreedc">  -8159.71826346 </i>
    <i name="XCdc">     37.18481060 </i>
    <i name="pawpsdc">   2012.60260865 </i>
    <i name="pawaedc">  -1949.97488812 </i>
    <i name="eentropy">     -0.01199973 </i>
    <i name="bandstr">     57.77814951 </i>
    <i name="atom">   2236.38650011 </i>
    <i name="e_fr_energy">    246.90242357 </i>
    <i name="e_wo_entrp">    246.91442330 </i>
    <i name="e_0_energy">    246.90842343 </i>
   </energy>
  </scstep>
  <scstep>
   <time name="dav">    5.02    5.02</time>
   <time name="total">    5.02    5.02</time>
   <dipole>
    <v name="dipole">      0.00000000       0.00000000      -0.00002318 </v>
    <i name="Tr[quadrupol]">    -79.15717378 </i>
    <i name="Echarged">      0.00000000 </i>
    <i name="Edipol_quadrupol">      0.00000000 </i>
    <i name="Eion">      0.00000000 </i>
   </dipole>
   <energy>
    <i name="e_fr_energy">      5.18533214 </i>
    <i name="e_wo_entrp">      5.18533257 </i>
    <i name="e_0_energy">      5.18533236 </i>
   </energy>
  </scstep>
  <scstep>
   <time name="dav">    4.19    4.19</time>
   <time name="total">    4.19    4.19</time>
   <dipole>
    <v name="dipole">      0.00000000       0.00000000      -0.00002318 </v>
    <i name="Tr[quadrupol]">    -79.15717378 </i>
    <i name="Echarged">      0.00000000 </i>
    <i name="Edipol_quadrupol">      0.00000000 </i>
    <i name="Eion">      0.00000000 </i>
   </dipole>
   <energy>
    <i name="e_fr_energy">    -16.95487556 </i>
    <i name="e_wo_entrp">    -16.95487556 </i>
    <i name="e_0_energy">    -16.95487556 </i>
   </energy>
  </scstep>
  <scstep>
   <time name="dav">    4.31    4.31</time>
   <time name="total">    4.31    4.31</time>
   <dipole>
    <v name="dipole">      0.00000000       0.00000000      -0.00002318 </v>
    <i name="Tr[quadrupol]">    -79.15717378 </i>
    <i name="Echarged">      0.00000000 </i>
    <i name="Edipol_quadrupol">      0.00000000 </i>
    <i name="Eion">      0.00000000 </i>
   </dipole>
   <energy>
    <i name="e_fr_energy">    -17.45404781 </i>
    <i name="e_wo_entrp">    -17.45404781 </i>
    <i name="e_0_energy">    -17.45404781 </i>
   </energy>
  </scstep>
  <scstep>
   <time name="dav">    4.53    4.53</time>
   <time name="total">    4.88    4.88</time>
   <dipole>
    <v name="dipole">      0.00000000       0.00000000      -0.00002318 </v>
    <i name="Tr[quadrupol]">    -79.15717378 </i>
    <i name="Echarged">      0.00000000 </i>
    <i name="Edipol_quadrupol">      0.00000000 </i>
    <i name="Eion">      0.00000000 </i>
   </dipole>
   <energy>
    <i name="e_fr_energy">    -17.46596820 </i>
    <i name="e_wo_entrp">    -17.46596820 </i>
    <i name="e_0_energy">    -17.46596820 </i>
   </energy>
  </scstep>
  <scstep>
   <time name="dav">    4.70    4.70</time>
   <time name="total">    5.33    5.33</time>
   <dipole>
    <v name="dipole">      0.00000000       0.00000000      -0.03568989 </v>
    <i name="Tr[quadrupol]">    -79.12807198 </i>
    <i name="Echarged">      0.00000000 </i>
    <i name="Edipol_quadrupol">      0.00000000 </i>
    <i name="Eion">      0.00000000 </i>
   </dipole>
   <energy>
    <i name="e_fr_energy">    -16.60184600 </i>
    <i name="e_wo_entrp">    -16.60184600 </i>
    <i name="e_0_energy">    -16.60184600 </i>
   </energy>
  </scstep>
  <scstep>
   <time name="dav">    4.33    4.33</time>
   <time name="total">    4.96    4.97</time>
   <dipole>
    <v name="dipole">      0.00000000       0.00000000      -0.00038201 </v>
    <i name="Tr[quadrupol]">    -79.35332379 </i>
    <i name="Echarged">      0.00000000 </i>
    <i name="Edipol_quadrupol">      0.00000000 </i>
    <i name="Eion">      0.00000000 </i>
   </dipole>
   <energy>
    <i name="e_fr_energy">    -16.60935065 </i>
    <i name="e_wo_entrp">    -16.60935065 </i>
    <i name="e_0_energy">    -16.60935065 </i>
   </energy>
  </scstep>
  <scstep>
   <time name="dav">    4.71    4.72</time>
   <time name="total">    5.34    5.35</time>
   <dipole>
    <v name="dipole">      0.00000000       0.00000000      -0.07377064 </v>
    <i name="Tr[quadrupol]">    -79.37028460 </i>
    <i name="Echarged">      0.00000000 </i>
    <i name="Edipol_quadrupol">      0.00000000 </i>
    <i name="Eion">      0.00000000 </i>
   </dipole>
   <energy>
    <i name="e_fr_energy">    -16.66759722 </i>
    <i name="e_wo_entrp">    -16.66759722 </i>
    <i name="e_0_energy">    -16.66759722 </i>
   </energy>
  </scstep>
  <scstep>
   <time name="dav">    4.33    4.33</time>
   <time name="total">    4.94    4.94</time>
   <dipole>
    <v name="dipole">      0.00000000       0.00000000      -0.02525294 </v>
    <i name="Tr[quadrupol]">    -79.37635334 </i>
    <i name="Echarged">      0.00000000 </i>
    <i name="Edipol_quadrupol">      0.00000000 </i>
    <i name="Eion">      0.00000000 </i>
   </dipole>
   <energy>
    <i name="e_fr_energy">    -16.54640804 </i>
    <i name="e_wo_entrp">    -16.54640804 </i>
    <i name="e_0_energy">    -16.54640804 </i>
   </energy>
  </scstep>
  <scstep>
   <time name="dav">    4.07    4.07</time>
   <time name="total">    4.70    4.70</time>
   <dipole>
    <v name="dipole">      0.00000000       0.00000000      -0.03217582 </v>
    <i name="Tr[quadrupol]">    -79.39520907 </i>
    <i name="Echarged">      0.00000000 </i>
    <i name="Edipol_quadrupol">      0.00000000 </i>
    <i name="Eion">      0.00000000 </i>
   </dipole>
   <energy>
    <i name="e_fr_energy">    -16.54481864 </i>
    <i name="e_wo_entrp">    -16.54481864 </i>
    <i name="e_0_energy">    -16.54481864 </i>
   </energy>
  </scstep>
  <scstep>
   <time name="dav">    4.41    4.41</time>
   <time name="total">    5.05    5.05</time>
   <dipole>
    <v name="dipole">      0.00000000       0.00000000      -0.03710266 </v>
    <i name="Tr[quadrupol]">    -79.33332555 </i>
    <i name="Echarged">      0.00000000 </i>
    <i name="Edipol_quadrupol">      0.00000000 </i>
    <i name="Eion">      0.00000000 </i>
   </dipole>
   <energy>
    <i name="e_fr_energy">    -16.54475061 </i>
    <i name="e_wo_entrp">    -16.54475061 </i>
    <i name="e_0_energy">    -16.54475061 </i>
   </energy>
  </scstep>
  <scstep>
   <time name="dav">    5.29    5.29</time>
   <time name="total">    5.95    5.95</time>
   <dipole>
    <v name="dipole">      0.00000000       0.00000000      -0.03793554 </v>
    <i name="Tr[quadrupol]">    -79.30133148 </i>
    <i name="Echarged">      0.00000000 </i>
    <i name="Edipol_quadrupol">      0.00000000 </i>
    <i name="Eion">      0.00000000 </i>
   </dipole>
   <energy>
    <i name="e_fr_energy">    -16.54469458 </i>
    <i name="e_wo_entrp">    -16.54469458 </i>
    <i name="e_0_energy">    -16.54469458 </i>
   </energy>
  </scstep>
  <scstep>
   <time name="dav">    4.68    4.68</time>
   <time name="total">    5.28    5.29</time>
   <dipole>
    <v name="dipole">      0.00000000       0.00000000      -0.03681497 </v>
    <i name="Tr[quadrupol]">    -79.29576384 </i>
    <i name="Echarged">      0.00000000 </i>
    <i name="Edipol_quadrupol">      0.00000000 </i>
    <i name="Eion">      0.00000000 </i>
   </dipole>
   <energy>
    <i name="e_fr_energy">    -16.54471535 </i>
    <i name="e_wo_entrp">    -16.54471535 </i>
    <i name="e_0_energy">    -16.54471535 </i>
   </energy>
  </scstep>
  <scstep>
   <time name="dav">    4.19    4.19</time>
   <time name="total">    4.81    4.81</time>
   <dipole>
    <v name="dipole">      0.00000000       0.00000000      -0.03730164 </v>
    <i name="Tr[quadrupol]">    -79.28931060 </i>
    <i name="Echarged">      0.00000000 </i>
    <i name="Edipol_quadrupol">      0.00000000 </i>
    <i name="Eion">      0.00000000 </i>
   </dipole>
   <energy>
    <i name="e_fr_energy">    -16.54473481 </i>
    <i name="e_wo_entrp">    -16.54473481 </i>
    <i name="e_0_energy">    -16.54473481 </i>
   </energy>
  </scstep>
  <scstep>
   <time name="dav">    4.33    4.33</time>
   <time name="total">    4.96    4.96</time>
   <dipole>
    <v name="dipole">      0.00000000       0.00000000      -0.03728757 </v>
    <i name="Tr[quadrupol]">    -79.28525408 </i>
    <i name="Echarged">      0.00000000 </i>
    <i name="Edipol_quadrupol">      0.00000000 </i>
    <i name="Eion">      0.00000000 </i>
   </dipole>
   <energy>
    <i name="e_fr_energy">    -16.54474346 </i>
    <i name="e_wo_entrp">    -16.54474346 </i>
    <i name="e_0_energy">    -16.54474346 </i>
   </energy>
  </scstep>
  <scstep>
   <time name="dav">    4.28    4.28</time>
   <time name="total">    4.92    4.92</time>
   <dipole>
    <v name="dipole">      0.00000000       0.00000000      -0.03695784 </v>
    <i name="Tr[quadrupol]">    -79.28840593 </i>
    <i name="Echarged">      0.00000000 </i>
    <i name="Edipol_quadrupol">      0.00000000 </i>
    <i name="Eion">      0.00000000 </i>
   </dipole>
   <energy>
    <i name="e_fr_energy">    -16.54476766 </i>
    <i name="e_wo_entrp">    -16.54476766 </i>
    <i name="e_0_energy">    -16.54476766 </i>
   </energy>
  </scstep>
  <scstep>
   <time name="dav">    4.52    4.52</time>
   <time name="total">    5.21    5.22</time>
   <dipole>
    <v name="dipole">      0.00000000       0.00000000      -0.03663309 </v>
    <i name="Tr[quadrupol]">    -79.29121503 </i>
    <i name="Echarged">      0.00000000 </i>
    <i name="Edipol_quadrupol">      0.00000000 </i>
    <i name="Eion">      0.00000000 </i>
   </dipole>
   <energy>
    <i name="e_fr_energy">    -16.54478683 </i>
    <i name="e_wo_entrp">    -16.54478683 </i>
    <i name="e_0_energy">    -16.54478683 </i>
   </energy>
  </scstep>
  <scstep>
   <time name="dav">    4.33    4.33</time>
   <time name="total">    5.00    5.01</time>
   <dipole>
    <v name="dipole">      0.00000000       0.00000000      -0.03647268 </v>
    <i name="Tr[quadrupol]">    -79.29562619 </i>
    <i name="Echarged">      0.00000000 </i>
    <i name="Edipol_quadrupol">      0.00000000 </i>
    <i name="Eion">      0.00000000 </i>
   </dipole>
   <energy>
    <i name="e_fr_energy">    -16.54481538 </i>
    <i name="e_wo_entrp">    -16.54481538 </i>
    <i name="e_0_energy">    -16.54481538 </i>
   </energy>
  </scstep>
  <scstep>
   <time name="dav">    4.68    4.68</time>
   <time name="total">    5.29    5.29</time>
   <dipole>
    <v name="dipole">      0.00000000       0.00000000      -0.03628578 </v>
    <i name="Tr[quadrupol]">    -79.30235634 </i>
    <i name="Echarged">      0.00000000 </i>
    <i name="Edipol_quadrupol">      0.00000000 </i>
    <i name="Eion">      0.00000000 </i>
   </dipole>
   <energy>
    <i name="e_fr_energy">    -16.54481973 </i>
    <i name="e_wo_entrp">    -16.54481973 </i>
    <i name="e_0_energy">    -16.54481973 </i>
   </energy>
  </scstep>
  <scstep>
   <time name="dav">    4.18    4.19</time>
   <time name="total">    4.80    4.81</time>
   <dipole>
    <v name="dipole">      0.00000000       0.00000000      -0.03631598 </v>
    <i name="Tr[quadrupol]">    -79.30833237 </i>
    <i name="Echarged">      0.00000000 </i>
    <i name="Edipol_quadrupol">      0.00000000 </i>
    <i name="Eion">      0.00000000 </i>
   </dipole>
   <energy>
    <i name="e_fr_energy">    -16.54482218 </i>
    <i name="e_wo_entrp">    -16.54482218 </i>
    <i name="e_0_energy">    -16.54482218 </i>
   </energy>
  </scstep>
  <scstep>
   <time name="dav">    3.62    3.62</time>
   <time name="total">    4.24    4.24</time>
   <dipole>
    <v name="dipole">      0.00000000       0.00000000      -0.03636570 </v>
    <i name="Tr[quadrupol]">    -79.31411299 </i>
    <i name="Echarged">      0.00000000 </i>
    <i name="Edipol_quadrupol">      0.00000000 </i>
    <i name="Eion">      0.00000000 </i>
   </dipole>
   <energy>
    <i name="e_fr_energy">    -16.54482326 </i>
    <i name="e_wo_entrp">    -16.54482326 </i>
    <i name="e_0_energy">    -16.54482326 </i>
   </energy>
  </scstep>
  <scstep>
   <time name="dav">    3.41    3.41</time>
   <time name="total">    4.06    4.06</time>
   <dipole>
    <v name="dipole">      0.00000000       0.00000000      -0.03643053 </v>
    <i name="Tr[quadrupol]">    -79.29919705 </i>
    <i name="Echarged">      0.00000000 </i>
    <i name="Edipol_quadrupol">      0.00000000 </i>
    <i name="Eion">      0.00000000 </i>
   </dipole>
   <energy>
    <i name="e_fr_energy">    -16.54482457 </i>
    <i name="e_wo_entrp">    -16.54482457 </i>
    <i name="e_0_energy">    -16.54482457 </i>
   </energy>
  </scstep>
  <scstep>
   <time name="dav">    3.41    3.41</time>
   <time name="total">    4.08    4.08</time>
   <dipole>
    <v name="dipole">      0.00000000       0.00000000      -0.03648139 </v>
    <i name="Tr[quadrupol]">    -79.28917987 </i>
    <i name="Echarged">      0.00000000 </i>
    <i name="Edipol_quadrupol">      0.00000000 </i>
    <i name="Eion">      0.00000000 </i>
   </dipole>
   <energy>
    <i name="e_fr_energy">    -16.54482528 </i>
    <i name="e_wo_entrp">    -16.54482528 </i>
    <i name="e_0_energy">    -16.54482528 </i>
   </energy>
  </scstep>
  <scstep>
   <time name="dav">    3.67    3.67</time>
   <time name="total">    4.39    4.39</time>
   <dipole>
    <v name="dipole">      0.00000000       0.00000000      -0.03655023 </v>
    <i name="Tr[quadrupol]">    -79.28967619 </i>
    <i name="Echarged">      0.00000000 </i>
    <i name="Edipol_quadrupol">      0.00000000 </i>
    <i name="Eion">      0.00000000 </i>
   </dipole>
   <energy>
    <i name="e_fr_energy">    -16.54482592 </i>
    <i name="e_wo_entrp">    -16.54482592 </i>
    <i name="e_0_energy">    -16.54482592 </i>
   </energy>
  </scstep>
  <scstep>
   <time name="dav">    3.50    3.50</time>
   <time name="total">    4.20    4.20</time>
   <dipole>
    <v name="dipole">      0.00000000       0.00000000      -0.03659181 </v>
    <i name="Tr[quadrupol]">    -79.28993846 </i>
    <i name="Echarged">      0.00000000 </i>
    <i name="Edipol_quadrupol">      0.00000000 </i>
    <i name="Eion">      0.00000000 </i>
   </dipole>
   <energy>
    <i name="e_fr_energy">    -16.54482636 </i>
    <i name="e_wo_entrp">    -16.54482636 </i>
    <i name="e_0_energy">    -16.54482636 </i>
   </energy>
  </scstep>
  <scstep>
   <time name="dav">    3.24    3.24</time>
   <time name="total">    3.99    3.99</time>
   <dipole>
    <v name="dipole">      0.00000000       0.00000000      -0.03663333 </v>
    <i name="Tr[quadrupol]">    -79.29544562 </i>
    <i name="Echarged">      0.00000000 </i>
    <i name="Edipol_quadrupol">      0.00000000 </i>
    <i name="Eion">      0.00000000 </i>
   </dipole>
   <energy>
    <i name="e_fr_energy">    -16.54482667 </i>
    <i name="e_wo_entrp">    -16.54482667 </i>
    <i name="e_0_energy">    -16.54482667 </i>
   </energy>
  </scstep>
  <scstep>
   <time name="dav">    3.42    3.42</time>
   <time name="total">    3.75    3.75</time>
   <dipole>
    <v name="dipole">      0.00000000       0.00000000      -0.03663910 </v>
    <i name="Tr[quadrupol]">    -79.30072372 </i>
    <i name="Echarged">      0.00000000 </i>
    <i name="Edipol_quadrupol">      0.00000000 </i>
    <i name="Eion">      0.00000000 </i>
   </dipole>
   <energy>
    <i name="alphaZ">     41.45988460 </i>
    <i name="ewald">   5970.20326166 </i>
    <i name="hartreedc">  -8149.10064369 </i>
    <i name="XCdc">     36.88820929 </i>
    <i name="pawpsdc">   2745.19286508 </i>
    <i name="pawaedc">  -2688.54164986 </i>
    <i name="eentropy">     -0.00000000 </i>
    <i name="bandstr">   -209.03325390 </i>
    <i name="atom">   2236.38650011 </i>
    <i name="e_fr_energy">    -16.54482671 </i>
    <i name="e_wo_entrp">    -16.54482671 </i>
    <i name="e_0_energy">    -16.54482671 </i>
   </energy>
  </scstep>
  <structure>
   <crystal>
    <varray name="basis" >
     <v>       3.63310530      -0.03640515       0.00000000 </v>
     <v>      -1.78502519       3.16456268       0.00000000 </v>
     <v>       0.00000000       0.00000000      20.00000000 </v>
    </varray>
    <i name="volume">    228.64410667 </i>
    <varray name="rec_basis" >
     <v>       0.27681122       0.15614006       0.00000000 </v>
     <v>       0.00318444       0.31779567       0.00000000 </v>
     <v>       0.00000000       0.00000000       0.05000000 </v>
    </varray>
   </crystal>
   <varray name="positions" >
    <v>       0.00003263       0.49996204       0.16835154 </v>
    <v>       0.00003225       0.49995986       0.38571185 </v>
    <v>       0.33336560       0.16662714       0.31043849 </v>
    <v>       0.66669891       0.83329460       0.23573142 </v>
   </varray>
  </structure>
  <varray name="forces" >
   <v>       0.00000565      -0.00001327       0.05086971 </v>
   <v>      -0.00000311       0.00000948      -0.00250707 </v>
   <v>      -0.00001549       0.00001589      -0.00357077 </v>
   <v>       0.00001295      -0.00001210      -0.04479187 </v>
  </varray>
  <varray name="stress" >
   <v>       3.01387863      -0.00006558      -0.00022324 </v>
   <v>      -0.00006532       3.01356772       0.00045668 </v>
   <v>      -0.00022306       0.00045658      -1.00821810 </v>
  </varray>
  <energy>
   <i name="e_fr_energy">    -17.78292483 </i>
   <i name="e_wo_entrp">    -17.78292483 </i>
   <i name="e_0_energy">     -0.00000000 </i>
  </energy>
  <time name="totalsc">  133.33  133.40</time>
 </calculation>
 <calculation>
  <scstep>
   <time name="dav">    4.00    4.00</time>
   <time name="total">    4.69    4.69</time>
   <dipole>
    <v name="dipole">      0.00000000       0.00000000      -0.03664687 </v>
    <i name="Tr[quadrupol]">    -80.23595086 </i>
    <i name="Echarged">      0.00000000 </i>
    <i name="Edipol_quadrupol">      0.00000000 </i>
    <i name="Eion">      0.00000000 </i>
   </dipole>
   <energy>
    <i name="alphaZ">     42.00863733 </i>
    <i name="ewald">   5894.57517356 </i>
    <i name="hartreedc">  -8068.49115456 </i>
    <i name="XCdc">     36.61111070 </i>
    <i name="pawpsdc">   2745.19203848 </i>
    <i name="pawaedc">  -2688.54082075 </i>
    <i name="eentropy">     -0.00000000 </i>
    <i name="bandstr">   -214.32246725 </i>
    <i name="atom">   2236.38650011 </i>
    <i name="e_fr_energy">    -16.58098239 </i>
    <i name="e_wo_entrp">    -16.58098239 </i>
    <i name="e_0_energy">    -16.58098239 </i>
   </energy>
  </scstep>
  <scstep>
   <time name="dav">    4.27    4.27</time>
   <time name="total">    4.99    5.00</time>
   <dipole>
    <v name="dipole">      0.00000000       0.00000000      -0.03932073 </v>
    <i name="Tr[quadrupol]">    -80.23114366 </i>
    <i name="Echarged">      0.00000000 </i>
    <i name="Edipol_quadrupol">      0.00000000 </i>
    <i name="Eion">      0.00000000 </i>
   </dipole>
   <energy>
    <i name="e_fr_energy">    -16.55688327 </i>
    <i name="e_wo_entrp">    -16.55688327 </i>
    <i name="e_0_energy">    -16.55688327 </i>
   </energy>
  </scstep>
  <scstep>
   <time name="dav">    4.57    4.57</time>
   <time name="total">    5.29    5.29</time>
   <dipole>
    <v name="dipole">      0.00000000       0.00000000      -0.03353867 </v>
    <i name="Tr[quadrupol]">    -80.22350502 </i>
    <i name="Echarged">      0.00000000 </i>
    <i name="Edipol_quadrupol">      0.00000000 </i>
    <i name="Eion">      0.00000000 </i>
   </dipole>
   <energy>
    <i name="e_fr_energy">    -16.55451253 </i>
    <i name="e_wo_entrp">    -16.55451253 </i>
    <i name="e_0_energy">    -16.55451253 </i>
   </energy>
  </scstep>
  <scstep>
   <time name="dav">    4.34    4.34</time>
   <time name="total">    5.00    5.00</time>
   <dipole>
    <v name="dipole">      0.00000000       0.00000000      -0.03949569 </v>
    <i name="Tr[quadrupol]">    -80.24077330 </i>
    <i name="Echarged">      0.00000000 </i>
    <i name="Edipol_quadrupol">      0.00000000 </i>
    <i name="Eion">      0.00000000 </i>
   </dipole>
   <energy>
    <i name="e_fr_energy">    -16.55444504 </i>
    <i name="e_wo_entrp">    -16.55444504 </i>
    <i name="e_0_energy">    -16.55444504 </i>
   </energy>
  </scstep>
  <scstep>
   <time name="dav">    4.29    4.29</time>
   <time name="total">    4.92    4.92</time>
   <dipole>
    <v name="dipole">      0.00000000       0.00000000      -0.03669258 </v>
    <i name="Tr[quadrupol]">    -80.24151105 </i>
    <i name="Echarged">      0.00000000 </i>
    <i name="Edipol_quadrupol">      0.00000000 </i>
    <i name="Eion">      0.00000000 </i>
   </dipole>
   <energy>
    <i name="e_fr_energy">    -16.55374092 </i>
    <i name="e_wo_entrp">    -16.55374092 </i>
    <i name="e_0_energy">    -16.55374092 </i>
   </energy>
  </scstep>
  <scstep>
   <time name="dav">    4.47    4.47</time>
   <time name="total">    5.14    5.14</time>
   <dipole>
    <v name="dipole">      0.00000000       0.00000000      -0.03685802 </v>
    <i name="Tr[quadrupol]">    -80.19918948 </i>
    <i name="Echarged">      0.00000000 </i>
    <i name="Edipol_quadrupol">      0.00000000 </i>
    <i name="Eion">      0.00000000 </i>
   </dipole>
   <energy>
    <i name="e_fr_energy">    -16.55375165 </i>
    <i name="e_wo_entrp">    -16.55375165 </i>
    <i name="e_0_energy">    -16.55375165 </i>
   </energy>
  </scstep>
  <scstep>
   <time name="dav">    4.57    4.57</time>
   <time name="total">    5.25    5.27</time>
   <dipole>
    <v name="dipole">      0.00000000       0.00000000      -0.03669603 </v>
    <i name="Tr[quadrupol]">    -80.17160659 </i>
    <i name="Echarged">      0.00000000 </i>
    <i name="Edipol_quadrupol">      0.00000000 </i>
    <i name="Eion">      0.00000000 </i>
   </dipole>
   <energy>
    <i name="e_fr_energy">    -16.55374845 </i>
    <i name="e_wo_entrp">    -16.55374845 </i>
    <i name="e_0_energy">    -16.55374845 </i>
   </energy>
  </scstep>
  <scstep>
   <time name="dav">    4.98    4.99</time>
   <time name="total">    5.70    5.76</time>
   <dipole>
    <v name="dipole">      0.00000000       0.00000000      -0.03658304 </v>
    <i name="Tr[quadrupol]">    -80.16582990 </i>
    <i name="Echarged">      0.00000000 </i>
    <i name="Edipol_quadrupol">      0.00000000 </i>
    <i name="Eion">      0.00000000 </i>
   </dipole>
   <energy>
    <i name="e_fr_energy">    -16.55374727 </i>
    <i name="e_wo_entrp">    -16.55374727 </i>
    <i name="e_0_energy">    -16.55374727 </i>
   </energy>
  </scstep>
  <scstep>
   <time name="dav">    5.12    5.15</time>
   <time name="total">    5.85    5.89</time>
   <dipole>
    <v name="dipole">      0.00000000       0.00000000      -0.03655844 </v>
    <i name="Tr[quadrupol]">    -80.16549532 </i>
    <i name="Echarged">      0.00000000 </i>
    <i name="Edipol_quadrupol">      0.00000000 </i>
    <i name="Eion">      0.00000000 </i>
   </dipole>
   <energy>
    <i name="e_fr_energy">    -16.55374735 </i>
    <i name="e_wo_entrp">    -16.55374735 </i>
    <i name="e_0_energy">    -16.55374735 </i>
   </energy>
  </scstep>
  <scstep>
   <time name="dav">    3.89    3.89</time>
   <time name="total">    4.57    4.57</time>
   <dipole>
    <v name="dipole">      0.00000000       0.00000000      -0.03660790 </v>
    <i name="Tr[quadrupol]">    -80.16518899 </i>
    <i name="Echarged">      0.00000000 </i>
    <i name="Edipol_quadrupol">      0.00000000 </i>
    <i name="Eion">      0.00000000 </i>
   </dipole>
   <energy>
    <i name="e_fr_energy">    -16.55374774 </i>
    <i name="e_wo_entrp">    -16.55374774 </i>
    <i name="e_0_energy">    -16.55374774 </i>
   </energy>
  </scstep>
  <scstep>
   <time name="dav">    3.83    3.84</time>
   <time name="total">    4.53    4.54</time>
   <dipole>
    <v name="dipole">      0.00000000       0.00000000      -0.03662721 </v>
    <i name="Tr[quadrupol]">    -80.17020621 </i>
    <i name="Echarged">      0.00000000 </i>
    <i name="Edipol_quadrupol">      0.00000000 </i>
    <i name="Eion">      0.00000000 </i>
   </dipole>
   <energy>
    <i name="e_fr_energy">    -16.55374815 </i>
    <i name="e_wo_entrp">    -16.55374815 </i>
    <i name="e_0_energy">    -16.55374815 </i>
   </energy>
  </scstep>
  <scstep>
   <time name="dav">    3.52    3.53</time>
   <time name="total">    4.19    4.20</time>
   <dipole>
    <v name="dipole">      0.00000000       0.00000000      -0.03664568 </v>
    <i name="Tr[quadrupol]">    -80.17516353 </i>
    <i name="Echarged">      0.00000000 </i>
    <i name="Edipol_quadrupol">      0.00000000 </i>
    <i name="Eion">      0.00000000 </i>
   </dipole>
   <energy>
    <i name="e_fr_energy">    -16.55374860 </i>
    <i name="e_wo_entrp">    -16.55374860 </i>
    <i name="e_0_energy">    -16.55374860 </i>
   </energy>
  </scstep>
  <scstep>
   <time name="dav">    3.47    3.47</time>
   <time name="total">    4.17    4.17</time>
   <dipole>
    <v name="dipole">      0.00000000       0.00000000      -0.03666980 </v>
    <i name="Tr[quadrupol]">    -80.18012075 </i>
    <i name="Echarged">      0.00000000 </i>
    <i name="Edipol_quadrupol">      0.00000000 </i>
    <i name="Eion">      0.00000000 </i>
   </dipole>
   <energy>
    <i name="e_fr_energy">    -16.55374901 </i>
    <i name="e_wo_entrp">    -16.55374901 </i>
    <i name="e_0_energy">    -16.55374901 </i>
   </energy>
  </scstep>
  <scstep>
   <time name="dav">    3.69    3.69</time>
   <time name="total">    4.39    4.40</time>
   <dipole>
    <v name="dipole">      0.00000000       0.00000000      -0.03669269 </v>
    <i name="Tr[quadrupol]">    -80.19034375 </i>
    <i name="Echarged">      0.00000000 </i>
    <i name="Edipol_quadrupol">      0.00000000 </i>
    <i name="Eion">      0.00000000 </i>
   </dipole>
   <energy>
    <i name="e_fr_energy">    -16.55374929 </i>
    <i name="e_wo_entrp">    -16.55374929 </i>
    <i name="e_0_energy">    -16.55374929 </i>
   </energy>
  </scstep>
  <scstep>
   <time name="dav">    3.41    3.41</time>
   <time name="total">    4.09    4.09</time>
   <dipole>
    <v name="dipole">      0.00000000       0.00000000      -0.03670108 </v>
    <i name="Tr[quadrupol]">    -80.21641337 </i>
    <i name="Echarged">      0.00000000 </i>
    <i name="Edipol_quadrupol">      0.00000000 </i>
    <i name="Eion">      0.00000000 </i>
   </dipole>
   <energy>
    <i name="e_fr_energy">    -16.55374936 </i>
    <i name="e_wo_entrp">    -16.55374936 </i>
    <i name="e_0_energy">    -16.55374936 </i>
   </energy>
  </scstep>
  <scstep>
   <time name="dav">    3.33    3.33</time>
   <time name="total">    3.66    3.66</time>
   <dipole>
    <v name="dipole">      0.00000000       0.00000000      -0.03670113 </v>
    <i name="Tr[quadrupol]">    -80.25305677 </i>
    <i name="Echarged">      0.00000000 </i>
    <i name="Edipol_quadrupol">      0.00000000 </i>
    <i name="Eion">      0.00000000 </i>
   </dipole>
   <energy>
    <i name="alphaZ">     42.28788312 </i>
    <i name="ewald">   5894.57517356 </i>
    <i name="hartreedc">  -8072.17046520 </i>
    <i name="XCdc">     36.76662847 </i>
    <i name="pawpsdc">   2723.10462157 </i>
    <i name="pawaedc">  -2666.32723393 </i>
    <i name="eentropy">     -0.00000000 </i>
    <i name="bandstr">   -211.17685706 </i>
    <i name="atom">   2236.38650011 </i>
    <i name="e_fr_energy">    -16.55374936 </i>
    <i name="e_wo_entrp">    -16.55374936 </i>
    <i name="e_0_energy">    -16.55374936 </i>
   </energy>
  </scstep>
  <structure>
   <crystal>
    <varray name="basis" >
     <v>       3.65195153      -0.03659438       0.00000000 </v>
     <v>      -1.79428511       3.18097691       0.00000000 </v>
     <v>       0.00000000       0.00000000      20.00000000 </v>
    </varray>
    <i name="volume">    231.02225479 </i>
    <varray name="rec_basis" >
     <v>       0.27538273       0.15533440       0.00000000 </v>
     <v>       0.00316804       0.31615582       0.00000000 </v>
     <v>       0.00000000       0.00000000       0.05000000 </v>
    </varray>
   </crystal>
   <varray name="positions" >
    <v>       0.00003260       0.49996184       0.16847424 </v>
    <v>       0.00003228       0.49996001       0.38570580 </v>
    <v>       0.33336552       0.16662738       0.31042988 </v>
    <v>       0.66669900       0.83329441       0.23562337 </v>
   </varray>
  </structure>
  <varray name="forces" >
   <v>       0.00000734      -0.00001149       0.10452541 </v>
   <v>      -0.00000217       0.00000592      -0.09916122 </v>
   <v>       0.00000396      -0.00000268      -0.08182674 </v>
   <v>      -0.00000913       0.00000825       0.07646255 </v>
  </varray>
  <varray name="stress" >
   <v>      -2.07445656       0.00005116      -0.00007766 </v>
   <v>       0.00005103      -2.07433365       0.00021039 </v>
   <v>      -0.00007770       0.00021017      -4.33285398 </v>
  </varray>
  <energy>
   <i name="e_fr_energy">    -17.78373580 </i>
   <i name="e_wo_entrp">    -17.78373580 </i>
   <i name="e_0_energy">     -0.00000000 </i>
  </energy>
  <time name="totalsc">   81.28   81.42</time>
 </calculation>
 <calculation>
  <scstep>
   <time name="dav">    3.92    3.92</time>
   <time name="total">    4.59    4.59</time>
   <dipole>
    <v name="dipole">      0.00000000       0.00000000      -0.03670172 </v>
    <i name="Tr[quadrupol]">    -79.93020050 </i>
    <i name="Echarged">      0.00000000 </i>
    <i name="Edipol_quadrupol">      0.00000000 </i>
    <i name="Eion">      0.00000000 </i>
   </dipole>
   <energy>
    <i name="alphaZ">     42.74263184 </i>
    <i name="ewald">   5933.13281709 </i>
    <i name="hartreedc">  -8112.62248624 </i>
    <i name="XCdc">     36.89475541 </i>
    <i name="pawpsdc">   2723.10444575 </i>
    <i name="pawaedc">  -2666.32705972 </i>
    <i name="eentropy">     -0.00000000 </i>
    <i name="bandstr">   -209.86684384 </i>
    <i name="atom">   2236.38650011 </i>
    <i name="e_fr_energy">    -16.55523960 </i>
    <i name="e_wo_entrp">    -16.55523960 </i>
    <i name="e_0_energy">    -16.55523960 </i>
   </energy>
  </scstep>
  <scstep>
   <time name="dav">    4.27    4.27</time>
   <time name="total">    4.98    4.98</time>
   <dipole>
    <v name="dipole">      0.00000000       0.00000000      -0.03524857 </v>
    <i name="Tr[quadrupol]">    -79.89421324 </i>
    <i name="Echarged">      0.00000000 </i>
    <i name="Edipol_quadrupol">      0.00000000 </i>
    <i name="Eion">      0.00000000 </i>
   </dipole>
   <energy>
    <i name="e_fr_energy">    -16.55178196 </i>
    <i name="e_wo_entrp">    -16.55178196 </i>
    <i name="e_0_energy">    -16.55178196 </i>
   </energy>
  </scstep>
  <scstep>
   <time name="dav">    4.43    4.43</time>
   <time name="total">    5.18    5.19</time>
   <dipole>
    <v name="dipole">      0.00000000       0.00000000      -0.03807415 </v>
    <i name="Tr[quadrupol]">    -79.89938037 </i>
    <i name="Echarged">      0.00000000 </i>
    <i name="Edipol_quadrupol">      0.00000000 </i>
    <i name="Eion">      0.00000000 </i>
   </dipole>
   <energy>
    <i name="e_fr_energy">    -16.55143470 </i>
    <i name="e_wo_entrp">    -16.55143470 </i>
    <i name="e_0_energy">    -16.55143470 </i>
   </energy>
  </scstep>
  <scstep>
   <time name="dav">    4.48    4.48</time>
   <time name="total">    5.17    5.17</time>
   <dipole>
    <v name="dipole">      0.00000000       0.00000000      -0.03537236 </v>
    <i name="Tr[quadrupol]">    -79.88798757 </i>
    <i name="Echarged">      0.00000000 </i>
    <i name="Edipol_quadrupol">      0.00000000 </i>
    <i name="Eion">      0.00000000 </i>
   </dipole>
   <energy>
    <i name="e_fr_energy">    -16.55133599 </i>
    <i name="e_wo_entrp">    -16.55133599 </i>
    <i name="e_0_energy">    -16.55133599 </i>
   </energy>
  </scstep>
  <scstep>
   <time name="dav">    4.40    4.40</time>
   <time name="total">    5.08    5.08</time>
   <dipole>
    <v name="dipole">      0.00000000       0.00000000      -0.03636482 </v>
    <i name="Tr[quadrupol]">    -79.88245100 </i>
    <i name="Echarged">      0.00000000 </i>
    <i name="Edipol_quadrupol">      0.00000000 </i>
    <i name="Eion">      0.00000000 </i>
   </dipole>
   <energy>
    <i name="e_fr_energy">    -16.55124408 </i>
    <i name="e_wo_entrp">    -16.55124408 </i>
    <i name="e_0_energy">    -16.55124408 </i>
   </energy>
  </scstep>
  <scstep>
   <time name="dav">    4.58    4.59</time>
   <time name="total">    5.28    5.29</time>
   <dipole>
    <v name="dipole">      0.00000000       0.00000000      -0.03630966 </v>
    <i name="Tr[quadrupol]">    -79.90337448 </i>
    <i name="Echarged">      0.00000000 </i>
    <i name="Edipol_quadrupol">      0.00000000 </i>
    <i name="Eion">      0.00000000 </i>
   </dipole>
   <energy>
    <i name="e_fr_energy">    -16.55124785 </i>
    <i name="e_wo_entrp">    -16.55124785 </i>
    <i name="e_0_energy">    -16.55124785 </i>
   </energy>
  </scstep>
  <scstep>
   <time name="dav">    4.40    4.41</time>
   <time name="total">    5.08    5.08</time>
   <dipole>
    <v name="dipole">      0.00000000       0.00000000      -0.03629945 </v>
    <i name="Tr[quadrupol]">    -79.92449366 </i>
    <i name="Echarged">      0.00000000 </i>
    <i name="Edipol_quadrupol">      0.00000000 </i>
    <i name="Eion">      0.00000000 </i>
   </dipole>
   <energy>
    <i name="e_fr_energy">    -16.55124835 </i>
    <i name="e_wo_entrp">    -16.55124835 </i>
    <i name="e_0_energy">    -16.55124835 </i>
   </energy>
  </scstep>
  <scstep>
   <time name="dav">    4.42    4.42</time>
   <time name="total">    5.12    5.13</time>
   <dipole>
    <v name="dipole">      0.00000000       0.00000000      -0.03641514 </v>
    <i name="Tr[quadrupol]">    -79.86759633 </i>
    <i name="Echarged">      0.00000000 </i>
    <i name="Edipol_quadrupol">      0.00000000 </i>
    <i name="Eion">      0.00000000 </i>
   </dipole>
   <energy>
    <i name="e_fr_energy">    -16.55124855 </i>
    <i name="e_wo_entrp">    -16.55124855 </i>
    <i name="e_0_energy">    -16.55124855 </i>
   </energy>
  </scstep>
  <scstep>
   <time name="dav">    3.96    3.96</time>
   <time name="total">    4.62    4.63</time>
   <dipole>
    <v name="dipole">      0.00000000       0.00000000      -0.03641871 </v>
    <i name="Tr[quadrupol]">    -79.84173386 </i>
    <i name="Echarged">      0.00000000 </i>
    <i name="Edipol_quadrupol">      0.00000000 </i>
    <i name="Eion">      0.00000000 </i>
   </dipole>
   <energy>
    <i name="e_fr_energy">    -16.55124863 </i>
    <i name="e_wo_entrp">    -16.55124863 </i>
    <i name="e_0_energy">    -16.55124863 </i>
   </energy>
  </scstep>
  <scstep>
   <time name="dav">    3.95    3.97</time>
   <time name="total">    4.26    4.28</time>
   <dipole>
    <v name="dipole">      0.00000000       0.00000000      -0.03640424 </v>
    <i name="Tr[quadrupol]">    -79.83146999 </i>
    <i name="Echarged">      0.00000000 </i>
    <i name="Edipol_quadrupol">      0.00000000 </i>
    <i name="Eion">      0.00000000 </i>
   </dipole>
   <energy>
    <i name="alphaZ">     41.41698228 </i>
    <i name="ewald">   5933.13281709 </i>
    <i name="hartreedc">  -8111.11743444 </i>
    <i name="XCdc">     36.83085349 </i>
    <i name="pawpsdc">   2735.03658395 </i>
    <i name="pawaedc">  -2678.33056939 </i>
    <i name="eentropy">     -0.00000000 </i>
    <i name="bandstr">   -209.90698174 </i>
    <i name="atom">   2236.38650011 </i>
    <i name="e_fr_energy">    -16.55124865 </i>
    <i name="e_wo_entrp">    -16.55124865 </i>
    <i name="e_0_energy">    -16.55124865 </i>
   </energy>
  </scstep>
  <structure>
   <crystal>
    <varray name="basis" >
     <v>       3.64444633      -0.03651900       0.00000000 </v>
     <v>      -1.79059748       3.17443993       0.00000000 </v>
     <v>       0.00000000       0.00000000      20.00000000 </v>
    </varray>
    <i name="volume">    230.07370253 </i>
    <varray name="rec_basis" >
     <v>       0.27594983       0.15565425       0.00000000 </v>
     <v>       0.00317455       0.31680686       0.00000000 </v>
     <v>       0.00000000       0.00000000       0.05000000 </v>
    </varray>
   </crystal>
   <varray name="positions" >
    <v>       0.00003261       0.49996174       0.16861787 </v>
    <v>       0.00003229       0.49996006       0.38556954 </v>
    <v>       0.33336553       0.16662736       0.31031744 </v>
    <v>       0.66669896       0.83329448       0.23572844 </v>
   </varray>
  </structure>
  <varray name="forces" >
   <v>       0.00000539      -0.00000941       0.06316386 </v>
   <v>      -0.00000284       0.00000571      -0.05298977 </v>
   <v>      -0.00000159       0.00000305      -0.00698548 </v>
   <v>      -0.00000097       0.00000065      -0.00318862 </v>
  </varray>
  <varray name="stress" >
   <v>       0.45936629       0.00002273      -0.00009678 </v>
   <v>       0.00002278       0.45943189       0.00022315 </v>
   <v>      -0.00009691       0.00022315      -2.20049222 </v>
  </varray>
  <energy>
   <i name="e_fr_energy">    -17.78485685 </i>
   <i name="e_wo_entrp">    -17.78485685 </i>
   <i name="e_0_energy">     -0.00000000 </i>
  </energy>
  <time name="totalsc">   54.01   54.08</time>
 </calculation>
 <calculation>
  <scstep>
   <time name="dav">    3.83    3.83</time>
   <time name="total">    4.52    4.52</time>
   <dipole>
    <v name="dipole">      0.00000000       0.00000000      -0.03639582 </v>
    <i name="Tr[quadrupol]">    -79.90700451 </i>
    <i name="Echarged">      0.00000000 </i>
    <i name="Edipol_quadrupol">      0.00000000 </i>
    <i name="Eion">      0.00000000 </i>
   </dipole>
   <energy>
    <i name="alphaZ">     41.37968052 </i>
    <i name="ewald">   5932.12755954 </i>
    <i name="hartreedc">  -8109.61066022 </i>
    <i name="XCdc">     36.81931427 </i>
    <i name="pawpsdc">   2735.03497448 </i>
    <i name="pawaedc">  -2678.32889588 </i>
    <i name="eentropy">     -0.00000000 </i>
    <i name="bandstr">   -210.36067797 </i>
    <i name="atom">   2236.38650011 </i>
    <i name="e_fr_energy">    -16.55220515 </i>
    <i name="e_wo_entrp">    -16.55220515 </i>
    <i name="e_0_energy">    -16.55220515 </i>
   </energy>
  </scstep>
  <scstep>
   <time name="dav">    4.22    4.23</time>
   <time name="total">    4.97    4.98</time>
   <dipole>
    <v name="dipole">      0.00000000       0.00000000      -0.03657497 </v>
    <i name="Tr[quadrupol]">    -79.92800370 </i>
    <i name="Echarged">      0.00000000 </i>
    <i name="Edipol_quadrupol">      0.00000000 </i>
    <i name="Eion">      0.00000000 </i>
   </dipole>
   <energy>
    <i name="e_fr_energy">    -16.55210239 </i>
    <i name="e_wo_entrp">    -16.55210239 </i>
    <i name="e_0_energy">    -16.55210239 </i>
   </energy>
  </scstep>
  <scstep>
   <time name="dav">    4.72    4.72</time>
   <time name="total">    5.38    5.38</time>
   <dipole>
    <v name="dipole">      0.00000000       0.00000000      -0.03618131 </v>
    <i name="Tr[quadrupol]">    -79.95399655 </i>
    <i name="Echarged">      0.00000000 </i>
    <i name="Edipol_quadrupol">      0.00000000 </i>
    <i name="Eion">      0.00000000 </i>
   </dipole>
   <energy>
    <i name="e_fr_energy">    -16.55208769 </i>
    <i name="e_wo_entrp">    -16.55208769 </i>
    <i name="e_0_energy">    -16.55208769 </i>
   </energy>
  </scstep>
  <scstep>
   <time name="dav">    4.47    4.47</time>
   <time name="total">    5.15    5.15</time>
   <dipole>
    <v name="dipole">      0.00000000       0.00000000      -0.03660612 </v>
    <i name="Tr[quadrupol]">    -79.95414033 </i>
    <i name="Echarged">      0.00000000 </i>
    <i name="Edipol_quadrupol">      0.00000000 </i>
    <i name="Eion">      0.00000000 </i>
   </dipole>
   <energy>
    <i name="e_fr_energy">    -16.55208892 </i>
    <i name="e_wo_entrp">    -16.55208892 </i>
    <i name="e_0_energy">    -16.55208892 </i>
   </energy>
  </scstep>
  <scstep>
   <time name="dav">    4.77    4.77</time>
   <time name="total">    5.47    5.47</time>
   <dipole>
    <v name="dipole">      0.00000000       0.00000000      -0.03627476 </v>
    <i name="Tr[quadrupol]">    -79.98018383 </i>
    <i name="Echarged">      0.00000000 </i>
    <i name="Edipol_quadrupol">      0.00000000 </i>
    <i name="Eion">      0.00000000 </i>
   </dipole>
   <energy>
    <i name="e_fr_energy">    -16.55208251 </i>
    <i name="e_wo_entrp">    -16.55208251 </i>
    <i name="e_0_energy">    -16.55208251 </i>
   </energy>
  </scstep>
  <scstep>
   <time name="dav">    4.42    4.42</time>
   <time name="total">    5.10    5.10</time>
   <dipole>
    <v name="dipole">      0.00000000       0.00000000      -0.03631227 </v>
    <i name="Tr[quadrupol]">    -79.94384586 </i>
    <i name="Echarged">      0.00000000 </i>
    <i name="Edipol_quadrupol">      0.00000000 </i>
    <i name="Eion">      0.00000000 </i>
   </dipole>
   <energy>
    <i name="e_fr_energy">    -16.55208243 </i>
    <i name="e_wo_entrp">    -16.55208243 </i>
    <i name="e_0_energy">    -16.55208243 </i>
   </energy>
  </scstep>
  <scstep>
   <time name="dav">    3.92    3.93</time>
   <time name="total">    4.61    4.62</time>
   <dipole>
    <v name="dipole">      0.00000000       0.00000000      -0.03629631 </v>
    <i name="Tr[quadrupol]">    -79.97482174 </i>
    <i name="Echarged">      0.00000000 </i>
    <i name="Edipol_quadrupol">      0.00000000 </i>
    <i name="Eion">      0.00000000 </i>
   </dipole>
   <energy>
    <i name="e_fr_energy">    -16.55208228 </i>
    <i name="e_wo_entrp">    -16.55208228 </i>
    <i name="e_0_energy">    -16.55208228 </i>
   </energy>
  </scstep>
  <scstep>
   <time name="dav">    3.37    3.37</time>
   <time name="total">    4.09    4.09</time>
   <dipole>
    <v name="dipole">      0.00000000       0.00000000      -0.03628949 </v>
    <i name="Tr[quadrupol]">    -79.96951988 </i>
    <i name="Echarged">      0.00000000 </i>
    <i name="Edipol_quadrupol">      0.00000000 </i>
    <i name="Eion">      0.00000000 </i>
   </dipole>
   <energy>
    <i name="e_fr_energy">    -16.55208217 </i>
    <i name="e_wo_entrp">    -16.55208217 </i>
    <i name="e_0_energy">    -16.55208217 </i>
   </energy>
  </scstep>
  <scstep>
   <time name="dav">    3.71    3.71</time>
   <time name="total">    4.05    4.06</time>
   <dipole>
    <v name="dipole">      0.00000000       0.00000000      -0.03628478 </v>
    <i name="Tr[quadrupol]">    -79.96947642 </i>
    <i name="Echarged">      0.00000000 </i>
    <i name="Edipol_quadrupol">      0.00000000 </i>
    <i name="Eion">      0.00000000 </i>
   </dipole>
   <energy>
    <i name="alphaZ">     42.21295964 </i>
    <i name="ewald">   5932.12755954 </i>
    <i name="hartreedc">  -8109.94969358 </i>
    <i name="XCdc">     36.83185182 </i>
    <i name="pawpsdc">   2735.43631291 </i>
    <i name="pawaedc">  -2678.73124075 </i>
    <i name="eentropy">     -0.00000000 </i>
    <i name="bandstr">   -210.86633187 </i>
    <i name="atom">   2236.38650011 </i>
    <i name="e_fr_energy">    -16.55208218 </i>
    <i name="e_wo_entrp">    -16.55208218 </i>
    <i name="e_0_energy">    -16.55208218 </i>
   </energy>
  </scstep>
  <structure>
   <crystal>
    <varray name="basis" >
     <v>       3.64609462      -0.03653538       0.00000000 </v>
     <v>      -1.79140720       3.17587592       0.00000000 </v>
     <v>       0.00000000       0.00000000      20.00000000 </v>
    </varray>
    <i name="volume">    230.28188749 </i>
    <varray name="rec_basis" >
     <v>       0.27582507       0.15558386       0.00000000 </v>
     <v>       0.00317310       0.31666360       0.00000000 </v>
     <v>       0.00000000       0.00000000       0.05000000 </v>
    </varray>
   </crystal>
   <varray name="positions" >
    <v>       0.00003261       0.49996161       0.16876383 </v>
    <v>       0.00003230       0.49996014       0.38544536 </v>
    <v>       0.33336554       0.16662740       0.31029065 </v>
    <v>       0.66669895       0.83329450       0.23573346 </v>
   </varray>
  </structure>
  <varray name="forces" >
   <v>       0.00000431      -0.00000781       0.05093756 </v>
   <v>      -0.00000233       0.00000485      -0.04699765 </v>
   <v>      -0.00000287       0.00000420      -0.01188538 </v>
   <v>       0.00000089      -0.00000124       0.00794547 </v>
  </varray>
  <varray name="stress" >
   <v>       0.35267622       0.00001301      -0.00008573 </v>
   <v>       0.00001308       0.35273025       0.00019974 </v>
   <v>      -0.00008573       0.00019958      -2.01721553 </v>
  </varray>
  <energy>
   <i name="e_fr_energy">    -17.78520639 </i>
   <i name="e_wo_entrp">    -17.78520639 </i>
   <i name="e_0_energy">     -0.00000000 </i>
  </energy>
  <time name="totalsc">   48.11   48.14</time>
 </calculation>
 <calculation>
  <scstep>
   <time name="dav">    4.00    4.13</time>
   <time name="total">    4.75    4.91</time>
   <dipole>
    <v name="dipole">      0.00000000       0.00000000      -0.03628593 </v>
    <i name="Tr[quadrupol]">    -80.21423804 </i>
    <i name="Echarged">      0.00000000 </i>
    <i name="Edipol_quadrupol">      0.00000000 </i>
    <i name="Eion">      0.00000000 </i>
   </dipole>
   <energy>
    <i name="alphaZ">     42.30443652 </i>
    <i name="ewald">   5931.91952755 </i>
    <i name="hartreedc">  -8108.19598080 </i>
    <i name="XCdc">     36.80158121 </i>
    <i name="pawpsdc">   2735.43385678 </i>
    <i name="pawaedc">  -2678.72883688 </i>
    <i name="eentropy">     -0.00000000 </i>
    <i name="bandstr">   -212.47626415 </i>
    <i name="atom">   2236.38650011 </i>
    <i name="e_fr_energy">    -16.55517966 </i>
    <i name="e_wo_entrp">    -16.55517966 </i>
    <i name="e_0_energy">    -16.55517966 </i>
   </energy>
  </scstep>
  <scstep>
   <time name="dav">    4.52    4.52</time>
   <time name="total">    5.23    5.24</time>
   <dipole>
    <v name="dipole">      0.00000000       0.00000000      -0.03715187 </v>
    <i name="Tr[quadrupol]">    -80.22098485 </i>
    <i name="Echarged">      0.00000000 </i>
    <i name="Edipol_quadrupol">      0.00000000 </i>
    <i name="Eion">      0.00000000 </i>
   </dipole>
   <energy>
    <i name="e_fr_energy">    -16.55441049 </i>
    <i name="e_wo_entrp">    -16.55441049 </i>
    <i name="e_0_energy">    -16.55441049 </i>
   </energy>
  </scstep>
  <scstep>
   <time name="dav">    4.46    4.46</time>
   <time name="total">    5.15    5.15</time>
   <dipole>
    <v name="dipole">      0.00000000       0.00000000      -0.03573247 </v>
    <i name="Tr[quadrupol]">    -80.21876288 </i>
    <i name="Echarged">      0.00000000 </i>
    <i name="Edipol_quadrupol">      0.00000000 </i>
    <i name="Eion">      0.00000000 </i>
   </dipole>
   <energy>
    <i name="e_fr_energy">    -16.55427278 </i>
    <i name="e_wo_entrp">    -16.55427278 </i>
    <i name="e_0_energy">    -16.55427278 </i>
   </energy>
  </scstep>
  <scstep>
   <time name="dav">    4.37    4.37</time>
   <time name="total">    5.06    5.06</time>
   <dipole>
    <v name="dipole">      0.00000000       0.00000000      -0.03716523 </v>
    <i name="Tr[quadrupol]">    -80.22542405 </i>
    <i name="Echarged">      0.00000000 </i>
    <i name="Edipol_quadrupol">      0.00000000 </i>
    <i name="Eion">      0.00000000 </i>
   </dipole>
   <energy>
    <i name="e_fr_energy">    -16.55427446 </i>
    <i name="e_wo_entrp">    -16.55427446 </i>
    <i name="e_0_energy">    -16.55427446 </i>
   </energy>
  </scstep>
  <scstep>
   <time name="dav">    4.46    4.46</time>
   <time name="total">    5.18    5.18</time>
   <dipole>
    <v name="dipole">      0.00000000       0.00000000      -0.03624580 </v>
    <i name="Tr[quadrupol]">    -80.21961553 </i>
    <i name="Echarged">      0.00000000 </i>
    <i name="Edipol_quadrupol">      0.00000000 </i>
    <i name="Eion">      0.00000000 </i>
   </dipole>
   <energy>
    <i name="e_fr_energy">    -16.55421837 </i>
    <i name="e_wo_entrp">    -16.55421837 </i>
    <i name="e_0_energy">    -16.55421837 </i>
   </energy>
  </scstep>
  <scstep>
   <time name="dav">    4.32    4.32</time>
   <time name="total">    5.05    5.05</time>
   <dipole>
    <v name="dipole">      0.00000000       0.00000000      -0.03632312 </v>
    <i name="Tr[quadrupol]">    -80.20884150 </i>
    <i name="Echarged">      0.00000000 </i>
    <i name="Edipol_quadrupol">      0.00000000 </i>
    <i name="Eion">      0.00000000 </i>
   </dipole>
   <energy>
    <i name="e_fr_energy">    -16.55422129 </i>
    <i name="e_wo_entrp">    -16.55422129 </i>
    <i name="e_0_energy">    -16.55422129 </i>
   </energy>
  </scstep>
  <scstep>
   <time name="dav">    4.92    4.92</time>
   <time name="total">    5.64    5.65</time>
   <dipole>
    <v name="dipole">      0.00000000       0.00000000      -0.03631541 </v>
    <i name="Tr[quadrupol]">    -80.22399930 </i>
    <i name="Echarged">      0.00000000 </i>
    <i name="Edipol_quadrupol">      0.00000000 </i>
    <i name="Eion">      0.00000000 </i>
   </dipole>
   <energy>
    <i name="e_fr_energy">    -16.55422134 </i>
    <i name="e_wo_entrp">    -16.55422134 </i>
    <i name="e_0_energy">    -16.55422134 </i>
   </energy>
  </scstep>
  <scstep>
   <time name="dav">    4.79    4.80</time>
   <time name="total">    5.51    5.52</time>
   <dipole>
    <v name="dipole">      0.00000000       0.00000000      -0.03628143 </v>
    <i name="Tr[quadrupol]">    -80.24409708 </i>
    <i name="Echarged">      0.00000000 </i>
    <i name="Edipol_quadrupol">      0.00000000 </i>
    <i name="Eion">      0.00000000 </i>
   </dipole>
   <energy>
    <i name="e_fr_energy">    -16.55422109 </i>
    <i name="e_wo_entrp">    -16.55422109 </i>
    <i name="e_0_energy">    -16.55422109 </i>
   </energy>
  </scstep>
  <scstep>
   <time name="dav">    3.49    3.50</time>
   <time name="total">    3.82    3.83</time>
   <dipole>
    <v name="dipole">      0.00000000       0.00000000      -0.03626835 </v>
    <i name="Tr[quadrupol]">    -80.25426002 </i>
    <i name="Echarged">      0.00000000 </i>
    <i name="Edipol_quadrupol">      0.00000000 </i>
    <i name="Eion">      0.00000000 </i>
   </dipole>
   <energy>
    <i name="alphaZ">     42.85648968 </i>
    <i name="ewald">   5931.91952755 </i>
    <i name="hartreedc">  -8109.16141034 </i>
    <i name="XCdc">     36.83902807 </i>
    <i name="pawpsdc">   2737.38609595 </i>
    <i name="pawaedc">  -2680.69374933 </i>
    <i name="eentropy">     -0.00000000 </i>
    <i name="bandstr">   -212.08670278 </i>
    <i name="atom">   2236.38650011 </i>
    <i name="e_fr_energy">    -16.55422110 </i>
    <i name="e_wo_entrp">    -16.55422110 </i>
    <i name="e_0_energy">    -16.55422110 </i>
   </energy>
  </scstep>
  <structure>
   <crystal>
    <varray name="basis" >
     <v>       3.65109863      -0.03658522       0.00000000 </v>
     <v>      -1.79386551       3.18023556       0.00000000 </v>
     <v>       0.00000000       0.00000000      20.00000000 </v>
    </varray>
    <i name="volume">    230.91449456 </i>
    <varray name="rec_basis" >
     <v>       0.27544703       0.15537054       0.00000000 </v>
     <v>       0.00316872       0.31622949       0.00000000 </v>
     <v>       0.00000000       0.00000000       0.05000000 </v>
    </varray>
   </crystal>
   <varray name="positions" >
    <v>       0.00003261       0.49996118       0.16921718 </v>
    <v>       0.00003232       0.49996040       0.38502061 </v>
    <v>       0.33336552       0.16662761       0.31015242 </v>
    <v>       0.66669895       0.83329445       0.23584309 </v>
   </varray>
  </structure>
  <varray name="forces" >
   <v>       0.00000306      -0.00000500       0.02085420 </v>
   <v>      -0.00000352       0.00000496      -0.02683208 </v>
   <v>       0.00000293      -0.00000216       0.01114851 </v>
   <v>      -0.00000247       0.00000220      -0.00517063 </v>
  </varray>
  <varray name="stress" >
   <v>       0.24164251       0.00002316      -0.00001018 </v>
   <v>       0.00002318       0.24169707       0.00008976 </v>
   <v>      -0.00001008       0.00008964      -1.08100075 </v>
  </varray>
  <energy>
   <i name="e_fr_energy">    -17.78597127 </i>
   <i name="e_wo_entrp">    -17.78597127 </i>
   <i name="e_0_energy">     -0.00000000 </i>
  </energy>
  <time name="totalsc">   50.37   50.55</time>
 </calculation>
 <calculation>
  <scstep>
   <time name="dav">    4.17    4.17</time>
   <time name="total">    4.85    4.86</time>
   <dipole>
    <v name="dipole">      0.00000000       0.00000000      -0.03626078 </v>
    <i name="Tr[quadrupol]">    -80.46760938 </i>
    <i name="Echarged">      0.00000000 </i>
    <i name="Edipol_quadrupol">      0.00000000 </i>
    <i name="Eion">      0.00000000 </i>
   </dipole>
   <energy>
    <i name="alphaZ">     42.74724593 </i>
    <i name="ewald">   5926.95577779 </i>
    <i name="hartreedc">  -8102.80283977 </i>
    <i name="XCdc">     36.80194995 </i>
    <i name="pawpsdc">   2737.37749305 </i>
    <i name="pawaedc">  -2680.68529595 </i>
    <i name="eentropy">     -0.00000000 </i>
    <i name="bandstr">   -213.33795369 </i>
    <i name="atom">   2236.38650011 </i>
    <i name="e_fr_energy">    -16.55712258 </i>
    <i name="e_wo_entrp">    -16.55712258 </i>
    <i name="e_0_energy">    -16.55712258 </i>
   </energy>
  </scstep>
  <scstep>
   <time name="dav">    4.87    4.87</time>
   <time name="total">    5.61    5.65</time>
   <dipole>
    <v name="dipole">      0.00000000       0.00000000      -0.03739434 </v>
    <i name="Tr[quadrupol]">    -80.44406579 </i>
    <i name="Echarged">      0.00000000 </i>
    <i name="Edipol_quadrupol">      0.00000000 </i>
    <i name="Eion">      0.00000000 </i>
   </dipole>
   <energy>
    <i name="e_fr_energy">    -16.55611705 </i>
    <i name="e_wo_entrp">    -16.55611705 </i>
    <i name="e_0_energy">    -16.55611705 </i>
   </energy>
  </scstep>
  <scstep>
   <time name="dav">    4.80    4.80</time>
   <time name="total">    5.49    5.50</time>
   <dipole>
    <v name="dipole">      0.00000000       0.00000000      -0.03561004 </v>
    <i name="Tr[quadrupol]">    -80.42570248 </i>
    <i name="Echarged">      0.00000000 </i>
    <i name="Edipol_quadrupol">      0.00000000 </i>
    <i name="Eion">      0.00000000 </i>
   </dipole>
   <energy>
    <i name="e_fr_energy">    -16.55601847 </i>
    <i name="e_wo_entrp">    -16.55601847 </i>
    <i name="e_0_energy">    -16.55601847 </i>
   </energy>
  </scstep>
  <scstep>
   <time name="dav">    4.63    4.63</time>
   <time name="total">    5.37    5.37</time>
   <dipole>
    <v name="dipole">      0.00000000       0.00000000      -0.03702516 </v>
    <i name="Tr[quadrupol]">    -80.43212219 </i>
    <i name="Echarged">      0.00000000 </i>
    <i name="Edipol_quadrupol">      0.00000000 </i>
    <i name="Eion">      0.00000000 </i>
   </dipole>
   <energy>
    <i name="e_fr_energy">    -16.55597107 </i>
    <i name="e_wo_entrp">    -16.55597107 </i>
    <i name="e_0_energy">    -16.55597107 </i>
   </energy>
  </scstep>
  <scstep>
   <time name="dav">    4.64    4.65</time>
   <time name="total">    5.46    5.49</time>
   <dipole>
    <v name="dipole">      0.00000000       0.00000000      -0.03648203 </v>
    <i name="Tr[quadrupol]">    -80.41103367 </i>
    <i name="Echarged">      0.00000000 </i>
    <i name="Edipol_quadrupol">      0.00000000 </i>
    <i name="Eion">      0.00000000 </i>
   </dipole>
   <energy>
    <i name="e_fr_energy">    -16.55594189 </i>
    <i name="e_wo_entrp">    -16.55594189 </i>
    <i name="e_0_energy">    -16.55594189 </i>
   </energy>
  </scstep>
  <scstep>
   <time name="dav">    4.62    4.62</time>
   <time name="total">    5.41    5.43</time>
   <dipole>
    <v name="dipole">      0.00000000       0.00000000      -0.03646011 </v>
    <i name="Tr[quadrupol]">    -80.41059496 </i>
    <i name="Echarged">      0.00000000 </i>
    <i name="Edipol_quadrupol">      0.00000000 </i>
    <i name="Eion">      0.00000000 </i>
   </dipole>
   <energy>
    <i name="e_fr_energy">    -16.55594238 </i>
    <i name="e_wo_entrp">    -16.55594238 </i>
    <i name="e_0_energy">    -16.55594238 </i>
   </energy>
  </scstep>
  <scstep>
   <time name="dav">    4.63    4.63</time>
   <time name="total">    5.25    5.26</time>
   <dipole>
    <v name="dipole">      0.00000000       0.00000000      -0.03647726 </v>
    <i name="Tr[quadrupol]">    -80.42063825 </i>
[...]
       <r>   -5.0015    1.0000 </r>
       <r>   -4.1017    1.0000 </r>
       <r>   -3.6710    1.0000 </r>
       <r>   -3.0630    1.0000 </r>
       <r>   -2.7839    1.0000 </r>
       <r>   -2.5355    1.0000 </r>
       <r>   -2.4535    1.0000 </r>
       <r>   -2.1971    1.0000 </r>
       <r>   -0.4178    0.0000 </r>
       <r>    0.8607    0.0000 </r>
       <r>    3.3262    0.0000 </r>
       <r>    4.4916    0.0000 </r>
       <r>    4.9152    0.0000 </r>
      </set>
      <set comment="kpoint 43">
       <r>  -17.3181    1.0000 </r>
       <r>  -17.1820    1.0000 </r>
       <r>   -7.7445    1.0000 </r>
       <r>   -7.2205    1.0000 </r>
       <r>   -6.7169    1.0000 </r>
       <r>   -6.5534    1.0000 </r>
       <r>   -6.3610    1.0000 </r>
       <r>   -5.8036    1.0000 </r>
       <r>   -5.2512    1.0000 </r>
       <r>   -5.0015    1.0000 </r>
       <r>   -4.1017    1.0000 </r>
       <r>   -3.6710    1.0000 </r>
       <r>   -3.0630    1.0000 </r>
       <r>   -2.7839    1.0000 </r>
       <r>   -2.5355    1.0000 </r>
       <r>   -2.4535    1.0000 </r>
       <r>   -2.1971    1.0000 </r>
       <r>   -0.4178    0.0000 </r>
       <r>    0.8607    0.0000 </r>
       <r>    3.3262    0.0000 </r>
       <r>    4.4916    0.0000 </r>
       <r>    4.9152    0.0000 </r>
      </set>
      <set comment="kpoint 44">
       <r>  -17.2733    1.0000 </r>
       <r>  -17.1241    1.0000 </r>
       <r>   -7.8758    1.0000 </r>
       <r>   -7.3435    1.0000 </r>
       <r>   -6.7061    1.0000 </r>
       <r>   -6.5347    1.0000 </r>
       <r>   -6.3640    1.0000 </r>
       <r>   -5.7987    1.0000 </r>
       <r>   -5.0644    1.0000 </r>
       <r>   -4.4654    1.0000 </r>
       <r>   -4.1115    1.0000 </r>
       <r>   -3.7219    1.0000 </r>
       <r>   -3.4114    1.0000 </r>
       <r>   -2.8966    1.0000 </r>
       <r>   -2.5460    1.0000 </r>
       <r>   -2.4923    1.0000 </r>
       <r>   -2.3887    1.0000 </r>
       <r>   -0.2949    0.0000 </r>
       <r>    1.0518    0.0000 </r>
       <r>    2.4384    0.0000 </r>
       <r>    4.6540    0.0000 </r>
       <r>    4.8778    0.0000 </r>
      </set>
      <set comment="kpoint 45">
       <r>  -17.2124    1.0000 </r>
       <r>  -17.0409    1.0000 </r>
       <r>   -7.7672    1.0000 </r>
       <r>   -7.4550    1.0000 </r>
       <r>   -6.6866    1.0000 </r>
       <r>   -6.4853    1.0000 </r>
       <r>   -6.2878    1.0000 </r>
       <r>   -5.9554    1.0000 </r>
       <r>   -5.1377    1.0000 </r>
       <r>   -4.7277    1.0000 </r>
       <r>   -3.9002    1.0000 </r>
       <r>   -3.4571    1.0000 </r>
       <r>   -3.3227    1.0000 </r>
       <r>   -3.0838    1.0000 </r>
       <r>   -2.9846    1.0000 </r>
       <r>   -2.5460    1.0000 </r>
       <r>   -2.3816    1.0000 </r>
       <r>   -0.3270    0.0000 </r>
       <r>    1.2017    0.0000 </r>
       <r>    2.5994    0.0000 </r>
       <r>    4.8531    0.0000 </r>
       <r>    5.1770    0.0000 </r>
      </set>
      <set comment="kpoint 46">
       <r>  -17.1709    1.0000 </r>
       <r>  -16.9815    1.0000 </r>
       <r>   -7.3348    1.0000 </r>
       <r>   -7.3278    1.0000 </r>
       <r>   -6.9278    1.0000 </r>
       <r>   -6.6709    1.0000 </r>
       <r>   -6.4466    1.0000 </r>
       <r>   -5.7247    1.0000 </r>
       <r>   -5.4079    1.0000 </r>
       <r>   -4.8394    1.0000 </r>
       <r>   -4.3065    1.0000 </r>
       <r>   -3.7358    1.0000 </r>
       <r>   -3.4265    1.0000 </r>
       <r>   -3.0747    1.0000 </r>
       <r>   -2.7111    1.0000 </r>
       <r>   -2.4119    1.0000 </r>
       <r>   -2.1525    1.0000 </r>
       <r>   -0.2035    0.0000 </r>
       <r>    1.4179    0.0000 </r>
       <r>    2.3491    0.0000 </r>
       <r>    5.0800    0.0000 </r>
       <r>    5.4653    0.0000 </r>
      </set>
      <set comment="kpoint 47">
       <r>  -17.1709    1.0000 </r>
       <r>  -16.9815    1.0000 </r>
       <r>   -7.3348    1.0000 </r>
       <r>   -7.3278    1.0000 </r>
       <r>   -6.9278    1.0000 </r>
       <r>   -6.6709    1.0000 </r>
       <r>   -6.4466    1.0000 </r>
       <r>   -5.7247    1.0000 </r>
       <r>   -5.4079    1.0000 </r>
       <r>   -4.8394    1.0000 </r>
       <r>   -4.3065    1.0000 </r>
       <r>   -3.7358    1.0000 </r>
       <r>   -3.4265    1.0000 </r>
       <r>   -3.0747    1.0000 </r>
       <r>   -2.7111    1.0000 </r>
       <r>   -2.4119    1.0000 </r>
       <r>   -2.1525    1.0000 </r>
       <r>   -0.2035    0.0000 </r>
       <r>    1.4179    0.0000 </r>
       <r>    2.3491    0.0000 </r>
       <r>    5.0800    0.0000 </r>
       <r>    5.4653    0.0000 </r>
      </set>
      <set comment="kpoint 48">
       <r>  -17.2124    1.0000 </r>
       <r>  -17.0409    1.0000 </r>
       <r>   -7.7672    1.0000 </r>
       <r>   -7.4550    1.0000 </r>
       <r>   -6.6866    1.0000 </r>
       <r>   -6.4852    1.0000 </r>
       <r>   -6.2878    1.0000 </r>
       <r>   -5.9554    1.0000 </r>
       <r>   -5.1377    1.0000 </r>
       <r>   -4.7277    1.0000 </r>
       <r>   -3.9002    1.0000 </r>
       <r>   -3.4571    1.0000 </r>
       <r>   -3.3227    1.0000 </r>
       <r>   -3.0838    1.0000 </r>
       <r>   -2.9846    1.0000 </r>
       <r>   -2.5460    1.0000 </r>
       <r>   -2.3816    1.0000 </r>
       <r>   -0.3271    0.0000 </r>
       <r>    1.2017    0.0000 </r>
       <r>    2.5994    0.0000 </r>
       <r>    4.8531    0.0000 </r>
       <r>    5.1770    0.0000 </r>
      </set>
      <set comment="kpoint 49">
       <r>  -17.4268    1.0000 </r>
       <r>  -17.3106    1.0000 </r>
       <r>   -7.7972    1.0000 </r>
       <r>   -7.1210    1.0000 </r>
       <r>   -6.8365    1.0000 </r>
       <r>   -6.6691    1.0000 </r>
       <r>   -6.3346    1.0000 </r>
       <r>   -5.6052    1.0000 </r>
       <r>   -5.1850    1.0000 </r>
       <r>   -4.7953    1.0000 </r>
       <r>   -4.4894    1.0000 </r>
       <r>   -3.1512    1.0000 </r>
       <r>   -3.0017    1.0000 </r>
       <r>   -2.9852    1.0000 </r>
       <r>   -2.3310    1.0000 </r>
       <r>   -2.3285    1.0000 </r>
       <r>   -2.0267    1.0000 </r>
       <r>   -0.2680    0.0000 </r>
       <r>    0.2183    0.0000 </r>
       <r>    3.5287    0.0000 </r>
       <r>    3.9496    0.0000 </r>
       <r>    4.4833    0.0000 </r>
      </set>
      <set comment="kpoint 50">
       <r>  -17.4741    1.0000 </r>
       <r>  -17.3596    1.0000 </r>
       <r>   -7.8158    1.0000 </r>
       <r>   -7.0991    1.0000 </r>
       <r>   -6.9420    1.0000 </r>
       <r>   -6.4681    1.0000 </r>
       <r>   -6.3561    1.0000 </r>
       <r>   -5.7866    1.0000 </r>
       <r>   -5.0421    1.0000 </r>
       <r>   -4.9412    1.0000 </r>
       <r>   -4.3627    1.0000 </r>
       <r>   -3.1395    1.0000 </r>
       <r>   -2.8645    1.0000 </r>
       <r>   -2.5852    1.0000 </r>
       <r>   -2.4784    1.0000 </r>
       <r>   -2.3952    1.0000 </r>
       <r>   -2.0489    1.0000 </r>
       <r>   -0.3756    0.0000 </r>
       <r>    0.0742    0.0000 </r>
       <r>    3.5915    0.0000 </r>
       <r>    3.9661    0.0000 </r>
       <r>    4.4594    0.0000 </r>
      </set>
      <set comment="kpoint 51">
       <r>  -17.4268    1.0000 </r>
       <r>  -17.3106    1.0000 </r>
       <r>   -7.7972    1.0000 </r>
       <r>   -7.1210    1.0000 </r>
       <r>   -6.8365    1.0000 </r>
       <r>   -6.6691    1.0000 </r>
       <r>   -6.3346    1.0000 </r>
       <r>   -5.6052    1.0000 </r>
       <r>   -5.1850    1.0000 </r>
       <r>   -4.7953    1.0000 </r>
       <r>   -4.4894    1.0000 </r>
       <r>   -3.1512    1.0000 </r>
       <r>   -3.0017    1.0000 </r>
       <r>   -2.9852    1.0000 </r>
       <r>   -2.3310    1.0000 </r>
       <r>   -2.3285    1.0000 </r>
       <r>   -2.0267    1.0000 </r>
       <r>   -0.2680    0.0000 </r>
       <r>    0.2183    0.0000 </r>
       <r>    3.5287    0.0000 </r>
       <r>    3.9496    0.0000 </r>
       <r>    4.4833    0.0000 </r>
      </set>
      <set comment="kpoint 52">
       <r>  -17.3181    1.0000 </r>
       <r>  -17.1820    1.0000 </r>
       <r>   -7.7445    1.0000 </r>
       <r>   -7.2205    1.0000 </r>
       <r>   -6.7169    1.0000 </r>
       <r>   -6.5534    1.0000 </r>
       <r>   -6.3610    1.0000 </r>
       <r>   -5.8036    1.0000 </r>
       <r>   -5.2512    1.0000 </r>
       <r>   -5.0015    1.0000 </r>
       <r>   -4.1017    1.0000 </r>
       <r>   -3.6710    1.0000 </r>
       <r>   -3.0630    1.0000 </r>
       <r>   -2.7839    1.0000 </r>
       <r>   -2.5355    1.0000 </r>
       <r>   -2.4535    1.0000 </r>
       <r>   -2.1971    1.0000 </r>
       <r>   -0.4178    0.0000 </r>
       <r>    0.8607    0.0000 </r>
       <r>    3.3262    0.0000 </r>
       <r>    4.4916    0.0000 </r>
       <r>    4.9152    0.0000 </r>
      </set>
      <set comment="kpoint 53">
       <r>  -17.2138    1.0000 </r>
       <r>  -17.0420    1.0000 </r>
       <r>   -7.5901    1.0000 </r>
       <r>   -7.1277    1.0000 </r>
       <r>   -7.0759    1.0000 </r>
       <r>   -6.3748    1.0000 </r>
       <r>   -6.2550    1.0000 </r>
       <r>   -5.9141    1.0000 </r>
       <r>   -5.4125    1.0000 </r>
       <r>   -5.1976    1.0000 </r>
       <r>   -3.8656    1.0000 </r>
       <r>   -3.5034    1.0000 </r>
       <r>   -3.2878    1.0000 </r>
       <r>   -3.0801    1.0000 </r>
       <r>   -3.0121    1.0000 </r>
       <r>   -2.4266    1.0000 </r>
       <r>   -2.0901    1.0000 </r>
       <r>   -0.3479    0.0000 </r>
       <r>    1.2478    0.0000 </r>
       <r>    2.9873    0.0000 </r>
       <r>    4.5413    0.0000 </r>
       <r>    5.5149    0.0000 </r>
      </set>
      <set comment="kpoint 54">
       <r>  -17.1709    1.0000 </r>
       <r>  -16.9815    1.0000 </r>
       <r>   -7.3348    1.0000 </r>
       <r>   -7.3278    1.0000 </r>
       <r>   -6.9278    1.0000 </r>
       <r>   -6.6709    1.0000 </r>
       <r>   -6.4466    1.0000 </r>
       <r>   -5.7247    1.0000 </r>
       <r>   -5.4079    1.0000 </r>
       <r>   -4.8394    1.0000 </r>
       <r>   -4.3065    1.0000 </r>
       <r>   -3.7358    1.0000 </r>
       <r>   -3.4265    1.0000 </r>
       <r>   -3.0747    1.0000 </r>
       <r>   -2.7111    1.0000 </r>
       <r>   -2.4119    1.0000 </r>
       <r>   -2.1525    1.0000 </r>
       <r>   -0.2035    0.0000 </r>
       <r>    1.4179    0.0000 </r>
       <r>    2.3491    0.0000 </r>
       <r>    5.0800    0.0000 </r>
       <r>    5.4653    0.0000 </r>
      </set>
      <set comment="kpoint 55">
       <r>  -17.2138    1.0000 </r>
       <r>  -17.0420    1.0000 </r>
       <r>   -7.5901    1.0000 </r>
       <r>   -7.1277    1.0000 </r>
       <r>   -7.0759    1.0000 </r>
       <r>   -6.3748    1.0000 </r>
       <r>   -6.2550    1.0000 </r>
       <r>   -5.9141    1.0000 </r>
       <r>   -5.4125    1.0000 </r>
       <r>   -5.1976    1.0000 </r>
       <r>   -3.8656    1.0000 </r>
       <r>   -3.5034    1.0000 </r>
       <r>   -3.2878    1.0000 </r>
       <r>   -3.0801    1.0000 </r>
       <r>   -3.0121    1.0000 </r>
       <r>   -2.4266    1.0000 </r>
       <r>   -2.0901    1.0000 </r>
       <r>   -0.3479    0.0000 </r>
       <r>    1.2478    0.0000 </r>
       <r>    2.9873    0.0000 </r>
       <r>    4.5413    0.0000 </r>
       <r>    5.5149    0.0000 </r>
      </set>
      <set comment="kpoint 56">
       <r>  -17.3181    1.0000 </r>
       <r>  -17.1820    1.0000 </r>
       <r>   -7.7445    1.0000 </r>
       <r>   -7.2205    1.0000 </r>
       <r>   -6.7169    1.0000 </r>
       <r>   -6.5534    1.0000 </r>
       <r>   -6.3610    1.0000 </r>
       <r>   -5.8036    1.0000 </r>
       <r>   -5.2512    1.0000 </r>
       <r>   -5.0015    1.0000 </r>
       <r>   -4.1017    1.0000 </r>
       <r>   -3.6710    1.0000 </r>
       <r>   -3.0630    1.0000 </r>
       <r>   -2.7839    1.0000 </r>
       <r>   -2.5355    1.0000 </r>
       <r>   -2.4535    1.0000 </r>
       <r>   -2.1971    1.0000 </r>
       <r>   -0.4178    0.0000 </r>
       <r>    0.8607    0.0000 </r>
       <r>    3.3262    0.0000 </r>
       <r>    4.4916    0.0000 </r>
       <r>    4.9152    0.0000 </r>
      </set>
      <set comment="kpoint 57">
       <r>  -17.5938    1.0000 </r>
       <r>  -17.4659    1.0000 </r>
       <r>   -8.0072    1.0000 </r>
       <r>   -7.0471    1.0000 </r>
       <r>   -6.9362    1.0000 </r>
       <r>   -6.6756    1.0000 </r>
       <r>   -6.2251    1.0000 </r>
       <r>   -5.7851    1.0000 </r>
       <r>   -4.8436    1.0000 </r>
       <r>   -4.7462    1.0000 </r>
       <r>   -4.0137    1.0000 </r>
       <r>   -3.0439    1.0000 </r>
       <r>   -2.6904    1.0000 </r>
       <r>   -2.4817    1.0000 </r>
       <r>   -2.4564    1.0000 </r>
       <r>   -2.3981    1.0000 </r>
       <r>   -2.0912    1.0000 </r>
       <r>   -0.3719    0.0000 </r>
       <r>   -0.2819    0.0000 </r>
       <r>    2.7425    0.0000 </r>
       <r>    3.5146    0.0000 </r>
       <r>    4.1065    0.0000 </r>
      </set>
      <set comment="kpoint 58">
       <r>  -17.5938    1.0000 </r>
       <r>  -17.4659    1.0000 </r>
       <r>   -8.0072    1.0000 </r>
       <r>   -7.0471    1.0000 </r>
       <r>   -6.9363    1.0000 </r>
       <r>   -6.6756    1.0000 </r>
       <r>   -6.2251    1.0000 </r>
       <r>   -5.7851    1.0000 </r>
       <r>   -4.8436    1.0000 </r>
       <r>   -4.7462    1.0000 </r>
       <r>   -4.0137    1.0000 </r>
       <r>   -3.0439    1.0000 </r>
       <r>   -2.6904    1.0000 </r>
       <r>   -2.4817    1.0000 </r>
       <r>   -2.4564    1.0000 </r>
       <r>   -2.3981    1.0000 </r>
       <r>   -2.0912    1.0000 </r>
       <r>   -0.3719    0.0000 </r>
       <r>   -0.2819    0.0000 </r>
       <r>    2.7425    0.0000 </r>
       <r>    3.5146    0.0000 </r>
       <r>    4.1065    0.0000 </r>
      </set>
      <set comment="kpoint 59">
       <r>  -17.4741    1.0000 </r>
       <r>  -17.3596    1.0000 </r>
       <r>   -7.8158    1.0000 </r>
       <r>   -7.0991    1.0000 </r>
       <r>   -6.9420    1.0000 </r>
       <r>   -6.4681    1.0000 </r>
       <r>   -6.3561    1.0000 </r>
       <r>   -5.7866    1.0000 </r>
       <r>   -5.0421    1.0000 </r>
       <r>   -4.9412    1.0000 </r>
       <r>   -4.3627    1.0000 </r>
       <r>   -3.1395    1.0000 </r>
       <r>   -2.8645    1.0000 </r>
       <r>   -2.5852    1.0000 </r>
       <r>   -2.4784    1.0000 </r>
       <r>   -2.3952    1.0000 </r>
       <r>   -2.0489    1.0000 </r>
       <r>   -0.3756    0.0000 </r>
       <r>    0.0742    0.0000 </r>
       <r>    3.5915    0.0000 </r>
       <r>    3.9661    0.0000 </r>
       <r>    4.4594    0.0000 </r>
      </set>
      <set comment="kpoint 60">
       <r>  -17.3181    1.0000 </r>
       <r>  -17.1820    1.0000 </r>
       <r>   -7.7445    1.0000 </r>
       <r>   -7.2205    1.0000 </r>
       <r>   -6.7169    1.0000 </r>
       <r>   -6.5534    1.0000 </r>
       <r>   -6.3610    1.0000 </r>
       <r>   -5.8036    1.0000 </r>
       <r>   -5.2512    1.0000 </r>
       <r>   -5.0015    1.0000 </r>
       <r>   -4.1017    1.0000 </r>
       <r>   -3.6710    1.0000 </r>
       <r>   -3.0630    1.0000 </r>
       <r>   -2.7839    1.0000 </r>
       <r>   -2.5355    1.0000 </r>
       <r>   -2.4535    1.0000 </r>
       <r>   -2.1971    1.0000 </r>
       <r>   -0.4178    0.0000 </r>
       <r>    0.8607    0.0000 </r>
       <r>    3.3262    0.0000 </r>
       <r>    4.4916    0.0000 </r>
       <r>    4.9152    0.0000 </r>
      </set>
      <set comment="kpoint 61">
       <r>  -17.2124    1.0000 </r>
       <r>  -17.0409    1.0000 </r>
       <r>   -7.7672    1.0000 </r>
       <r>   -7.4550    1.0000 </r>
       <r>   -6.6866    1.0000 </r>
       <r>   -6.4852    1.0000 </r>
       <r>   -6.2878    1.0000 </r>
       <r>   -5.9554    1.0000 </r>
       <r>   -5.1377    1.0000 </r>
       <r>   -4.7277    1.0000 </r>
       <r>   -3.9002    1.0000 </r>
       <r>   -3.4571    1.0000 </r>
       <r>   -3.3227    1.0000 </r>
       <r>   -3.0838    1.0000 </r>
       <r>   -2.9846    1.0000 </r>
       <r>   -2.5460    1.0000 </r>
       <r>   -2.3816    1.0000 </r>
       <r>   -0.3271    0.0000 </r>
       <r>    1.2017    0.0000 </r>
       <r>    2.5994    0.0000 </r>
       <r>    4.8531    0.0000 </r>
       <r>    5.1770    0.0000 </r>
      </set>
      <set comment="kpoint 62">
       <r>  -17.2124    1.0000 </r>
       <r>  -17.0409    1.0000 </r>
       <r>   -7.7672    1.0000 </r>
       <r>   -7.4550    1.0000 </r>
       <r>   -6.6866    1.0000 </r>
       <r>   -6.4852    1.0000 </r>
       <r>   -6.2878    1.0000 </r>
       <r>   -5.9554    1.0000 </r>
       <r>   -5.1377    1.0000 </r>
       <r>   -4.7277    1.0000 </r>
       <r>   -3.9002    1.0000 </r>
       <r>   -3.4571    1.0000 </r>
       <r>   -3.3227    1.0000 </r>
       <r>   -3.0838    1.0000 </r>
       <r>   -2.9846    1.0000 </r>
       <r>   -2.5460    1.0000 </r>
       <r>   -2.3816    1.0000 </r>
       <r>   -0.3271    0.0000 </r>
       <r>    1.2017    0.0000 </r>
       <r>    2.5994    0.0000 </r>
       <r>    4.8531    0.0000 </r>
       <r>    5.1770    0.0000 </r>
      </set>
      <set comment="kpoint 63">
       <r>  -17.3181    1.0000 </r>
       <r>  -17.1820    1.0000 </r>
       <r>   -7.7445    1.0000 </r>
       <r>   -7.2205    1.0000 </r>
       <r>   -6.7169    1.0000 </r>
       <r>   -6.5534    1.0000 </r>
       <r>   -6.3610    1.0000 </r>
       <r>   -5.8036    1.0000 </r>
       <r>   -5.2512    1.0000 </r>
       <r>   -5.0015    1.0000 </r>
       <r>   -4.1017    1.0000 </r>
       <r>   -3.6710    1.0000 </r>
       <r>   -3.0630    1.0000 </r>
       <r>   -2.7839    1.0000 </r>
       <r>   -2.5355    1.0000 </r>
       <r>   -2.4535    1.0000 </r>
       <r>   -2.1971    1.0000 </r>
       <r>   -0.4178    0.0000 </r>
       <r>    0.8607    0.0000 </r>
       <r>    3.3262    0.0000 </r>
       <r>    4.4916    0.0000 </r>
       <r>    4.9152    0.0000 </r>
      </set>
      <set comment="kpoint 64">
       <r>  -17.4741    1.0000 </r>
       <r>  -17.3596    1.0000 </r>
       <r>   -7.8158    1.0000 </r>
       <r>   -7.0991    1.0000 </r>
       <r>   -6.9420    1.0000 </r>
       <r>   -6.4681    1.0000 </r>
       <r>   -6.3561    1.0000 </r>
       <r>   -5.7866    1.0000 </r>
       <r>   -5.0421    1.0000 </r>
       <r>   -4.9412    1.0000 </r>
       <r>   -4.3628    1.0000 </r>
       <r>   -3.1395    1.0000 </r>
       <r>   -2.8645    1.0000 </r>
       <r>   -2.5852    1.0000 </r>
       <r>   -2.4784    1.0000 </r>
       <r>   -2.3952    1.0000 </r>
       <r>   -2.0489    1.0000 </r>
       <r>   -0.3756    0.0000 </r>
       <r>    0.0742    0.0000 </r>
       <r>    3.5915    0.0000 </r>
       <r>    3.9661    0.0000 </r>
       <r>    4.4594    0.0000 </r>
      </set>
     </set>
    </set>
   </array>
  </eigenvalues>
  <separator name="orbital magnetization" >
   <v name="MAGDIPOLOUT">      0.00000000      0.00000000      0.00000000</v>
  </separator>
 </calculation>
 <structure name="finalpos" >
  <crystal>
   <varray name="basis" >
    <v>       3.65552801      -0.03662903       0.00000000 </v>
    <v>      -1.79604125       3.18409495       0.00000000 </v>
    <v>       0.00000000       0.00000000      20.00000000 </v>
   </varray>
   <i name="volume">    231.47522027 </i>
   <varray name="rec_basis" >
    <v>       0.27511324       0.15518216       0.00000000 </v>
    <v>       0.00316483       0.31584616       0.00000000 </v>
    <v>       0.00000000       0.00000000       0.05000000 </v>
   </varray>
  </crystal>
  <varray name="positions" >
   <v>       0.00003260       0.49996075       0.16956139 </v>
   <v>       0.00003230       0.49996081       0.38463917 </v>
   <v>       0.33336554       0.16662771       0.31010675 </v>
   <v>       0.66669896       0.83329437       0.23592599 </v>
  </varray>
 </structure>
</modeling>
