unknown system                          
           1
     3.633105   -0.036405    0.000000
    -1.785025    3.164563    0.000000
     0.000000    0.000000   20.000000
   Cl   Br   Pt
   1   1   2
Direct configuration=     1
   0.00003263  0.49996204  0.16835154
   0.00003225  0.49995986  0.38571185
   0.33336560  0.16662714  0.31043849
   0.66669891  0.83329460  0.23573142
unknown system                          
           1
     3.651952   -0.036594    0.000000
    -1.794285    3.180977    0.000000
     0.000000    0.000000   20.000000
   Cl   Br   Pt
   1   1   2
Direct configuration=     2
   0.00003260  0.49996184  0.16847424
   0.00003228  0.49996001  0.38570580
   0.33336552  0.16662738  0.31042988
   0.66669900  0.83329441  0.23562337
unknown system                          
           1
     3.644446   -0.036519    0.000000
    -1.790597    3.174440    0.000000
     0.000000    0.000000   20.000000
   Cl   Br   Pt
   1   1   2
Direct configuration=     3
   0.00003261  0.49996174  0.16861787
   0.00003229  0.49996006  0.38556954
   0.33336553  0.16662736  0.31031744
   0.66669896  0.83329448  0.23572844
unknown system                          
           1
     3.646095   -0.036535    0.000000
    -1.791407    3.175876    0.000000
     0.000000    0.000000   20.000000
   Cl   Br   Pt
   1   1   2
Direct configuration=     4
   0.00003261  0.49996161  0.16876383
   0.00003230  0.49996014  0.38544536
   0.33336554  0.16662740  0.31029065
   0.66669895  0.83329450  0.23573346
unknown system                          
           1
     3.651099   -0.036585    0.000000
    -1.793866    3.180236    0.000000
     0.000000    0.000000   20.000000
   Cl   Br   Pt
   1   1   2
Direct configuration=     5
   0.00003261  0.49996118  0.16921718
   0.00003232  0.49996040  0.38502061
   0.33336552  0.16662761  0.31015242
   0.66669895  0.83329445  0.23584309
unknown system                          
           1
     3.655754   -0.036631    0.000000
    -1.796152    3.184291    0.000000
     0.000000    0.000000   20.000000
   Cl   Br   Pt
   1   1   2
Direct configuration=     6
   0.00003261  0.49996082  0.16954338
   0.00003231  0.49996067  0.38468339
   0.33336555  0.16662767  0.31011941
   0.66669892  0.83329448  0.23588712
unknown system                          
           1
     3.653939   -0.036613    0.000000
    -1.795261    3.182710    0.000000
     0.000000    0.000000   20.000000
   Cl   Br   Pt
   1   1   2
Direct configuration=     7
   0.00003260  0.49996092  0.16944212
   0.00003231  0.49996061  0.38477333
   0.33336553  0.16662767  0.31012596
   0.66669895  0.83329443  0.23589189
unknown system                          
           1
     3.654623   -0.036620    0.000000
    -1.795597    3.183306    0.000000
     0.000000    0.000000   20.000000
   Cl   Br   Pt
   1   1   2
Direct configuration=     8
   0.00003260  0.49996087  0.16948913
   0.00003231  0.49996067  0.38472077
   0.33336553  0.16662769  0.31011763
   0.66669895  0.83329441  0.23590576
unknown system                          
           1
     3.655822   -0.036632    0.000000
    -1.796186    3.184351    0.000000
     0.000000    0.000000   20.000000
   Cl   Br   Pt
   1   1   2
Direct configuration=     9
   0.00003260  0.49996075  0.16957441
   0.00003230  0.49996080  0.38462549
   0.33336554  0.16662771  0.31010367
   0.66669896  0.83329438  0.23592972
unknown system                          
           1
     3.655528   -0.036629    0.000000
    -1.796041    3.184095    0.000000
     0.000000    0.000000   20.000000
   Cl   Br   Pt
   1   1   2
Direct configuration=    10
   0.00003260  0.49996076  0.16955977
   0.00003230  0.49996080  0.38464151
   0.33336554  0.16662771  0.31010657
   0.66669896  0.83329438  0.23592544
unknown system                          
           1
     3.655587   -0.036630    0.000000
    -1.796070    3.184147    0.000000
     0.000000    0.000000   20.000000
   Cl   Br   Pt
   1   1   2
Direct configuration=    11
   0.00003260  0.49996074  0.16956510
   0.00003230  0.49996082  0.38463525
   0.33336554  0.16662771  0.31010580
   0.66669896  0.83329437  0.23592715
unknown system                          
           1
     3.655528   -0.036629    0.000000
    -1.796041    3.184095    0.000000
     0.000000    0.000000   20.000000
   Cl   Br   Pt
   1   1   2
Direct configuration=    12
   0.00003260  0.49996075  0.16956139
   0.00003230  0.49996081  0.38463917
   0.33336554  0.16662771  0.31010675
   0.66669896  0.83329437  0.23592599
