 running on    8 total cores
 distrk:  each k-point on    2 cores,    4 groups
 distr:  one band on    1 cores,    2 groups
 using from now: INCAR     
 vasp.5.4.4.16052018 (build Dec 07 2020 11:33:42) complex                       
  
 POSCAR found type information on POSCAR  Cl Br Pt
 POSCAR found :  3 types and       4 ions
 scaLAPACK will be used

 ----------------------------------------------------------------------------- 
|                                                                             |
|           W    W    AA    RRRRR   N    N  II  N    N   GGGG   !!!           |
|           W    W   A  A   R    R  NN   N  II  NN   N  G    G  !!!           |
|           W    W  A    A  R    R  N N  N  II  N N  N  G       !!!           |
|           W WW W  AAAAAA  RRRRR   N  N N  II  N  N N  G  GGG   !            |
|           WW  WW  A    A  R   R   N   NN  II  N   NN  G    G                |
|           W    W  A    A  R    R  N    N  II  N    N   GGGG   !!!           |
|                                                                             |
|      For optimal performance we recommend to set                            |
|        NCORE= 4 - approx SQRT( number of cores)                             |
|      NCORE specifies how many cores store one orbital (NPAR=cpu/NCORE).     |
|      This setting can  greatly improve the performance of VASP for DFT.     |
|      The default,   NCORE=1            might be grossly inefficient         |
|      on modern multi-core architectures or massively parallel machines.     |
|      Do your own testing !!!!                                               |
|      Unfortunately you need to use the default for GW and RPA calculations. |
|      (for HF NCORE is supported but not extensively tested yet)             |
|                                                                             |
 ----------------------------------------------------------------------------- 


 ----------------------------------------------------------------------------- 
|                                                                             |
|           W    W    AA    RRRRR   N    N  II  N    N   GGGG   !!!           |
|           W    W   A  A   R    R  NN   N  II  NN   N  G    G  !!!           |
|           W    W  A    A  R    R  N N  N  II  N N  N  G       !!!           |
|           W WW W  AAAAAA  RRRRR   N  N N  II  N  N N  G  GGG   !            |
|           WW  WW  A    A  R   R   N   NN  II  N   NN  G    G                |
|           W    W  A    A  R    R  N    N  II  N    N   GGGG   !!!           |
|                                                                             |
|      You have enabled k-point parallelism (KPAR>1).                         |
|      This developmental code was originally  written by Paul Kent at ORNL,  |
|      and carefully double checked in Vienna.                                |
|      GW as well as linear response parallelism added by Martijn Marsman     |
|      and Georg Kresse.                                                      |
|      Carefully verify results versus KPAR=1.                                |
|      Report problems to Paul Kent and Vienna.                               |
|                                                                             |
 ----------------------------------------------------------------------------- 

 LDA part: xc-table for Pade appr. of Perdew
 POSCAR, INCAR and KPOINTS ok, starting setup
 FFT: planning ...
 WAVECAR not read
 entering main loop
       N       E                     dE             d eps       ncg     rms          rms(c)
DAV:   1     0.244172033146E+03    0.24417E+03   -0.11651E+04  2816   0.998E+02
DAV:   2     0.531860368929E+01   -0.23885E+03   -0.22717E+03  4194   0.219E+02
DAV:   3    -0.169464140247E+02   -0.22265E+02   -0.21788E+02  3426   0.749E+01
DAV:   4    -0.174629392895E+02   -0.51653E+00   -0.51440E+00  3434   0.129E+01
DAV:   5    -0.174767970813E+02   -0.13858E-01   -0.13854E-01  3480   0.208E+00    0.158E+01
DAV:   6    -0.166121070262E+02    0.86469E+00   -0.23919E+00  3494   0.137E+01    0.883E+00
DAV:   7    -0.166041627807E+02    0.79442E-02   -0.56436E-01  3296   0.747E+00    0.307E+00
DAV:   8    -0.166508807040E+02   -0.46718E-01   -0.40690E-01  3524   0.903E+00    0.240E+00
DAV:   9    -0.165587226534E+02    0.92158E-01   -0.15501E-01  3428   0.562E+00    0.438E-01
DAV:  10    -0.165566724428E+02    0.20502E-02   -0.22819E-02  3256   0.124E+00    0.210E-01
DAV:  11    -0.165563107568E+02    0.36169E-03   -0.36315E-03  3302   0.550E-01    0.873E-02
DAV:  12    -0.165563190954E+02   -0.83386E-05   -0.42213E-04  4006   0.128E-01    0.542E-02
DAV:  13    -0.165563296450E+02   -0.10550E-04   -0.15995E-04  3320   0.818E-02    0.221E-02
DAV:  14    -0.165563549653E+02   -0.25320E-04   -0.31166E-05  3350   0.500E-02    0.193E-02
DAV:  15    -0.165563636305E+02   -0.86652E-05   -0.23272E-06  3362   0.127E-02    0.124E-02
DAV:  16    -0.165563981322E+02   -0.34502E-04   -0.48255E-06  3194   0.113E-02    0.325E-03
DAV:  17    -0.165564249344E+02   -0.26802E-04   -0.30581E-06  3380   0.792E-03    0.370E-03
DAV:  18    -0.165564347576E+02   -0.98232E-05   -0.66589E-07  3416   0.443E-03    0.299E-03
DAV:  19    -0.165564453339E+02   -0.10576E-04   -0.13061E-06  3158   0.415E-03    0.151E-03
DAV:  20    -0.165564470786E+02   -0.17447E-05   -0.89669E-08  2850   0.128E-03    0.972E-04
DAV:  21    -0.165564487940E+02   -0.17153E-05   -0.80127E-08  2502   0.995E-04    0.249E-04
DAV:  22    -0.165564498660E+02   -0.10721E-05   -0.34869E-08  2508   0.708E-04    0.320E-04
DAV:  23    -0.165564507162E+02   -0.85023E-06   -0.16417E-08  2292   0.475E-04    0.227E-04
DAV:  24    -0.165564513408E+02   -0.62459E-06   -0.15295E-08  2284   0.428E-04    0.129E-04
DAV:  25    -0.165564515578E+02   -0.21700E-06   -0.13076E-08  2184   0.566E-04    0.154E-04
DAV:  26    -0.165564515702E+02   -0.12384E-07   -0.35389E-09  2356   0.458E-04
   1 F= -.17786859E+02 E0= -.17786859E+02  d E =-.177869E+02
stress tensor set to zero in row and column 1
stress tensor set to zero in row and column 2
stress tensor set to zero in row and column 3
 BRION: g(F)=  0.807E-07 g(S)=  0.000E+00
 bond charge predicted
       N       E                     dE             d eps       ncg     rms          rms(c)
DAV:   1    -0.165564484668E+02    0.30910E-05   -0.63595E-06  3278   0.130E-02    0.159E-03
DAV:   2    -0.165564485112E+02   -0.44422E-07   -0.27174E-07  3452   0.302E-03
   2 F= -.17786860E+02 E0= -.17786860E+02  d E =-.116671E-06
stress tensor set to zero in row and column 1
stress tensor set to zero in row and column 2
stress tensor set to zero in row and column 3
 BRION: g(F)=  0.248E-07 g(S)=  0.000E+00 retain N=  1 mean eig= 1.98
 eig:   1.982
 reached required accuracy - stopping structural energy minimisation
 writing wavefunctions
