 vasp.5.4.4.16052018 (build Dec 07 2020 11:33:42) complex                       
  
 executed on             LinuxIFC date 2020.12.16  02:55:48
 running on    8 total cores
 distrk:  each k-point on    2 cores,    4 groups
 distr:  one band on NCORES_PER_BAND=   1 cores,    2 groups


--------------------------------------------------------------------------------------------------------


 INCAR:
 POTCAR:    PAW_PBE Cl 06Sep2000                  
 POTCAR:    PAW_PBE Br 06Sep2000                  
 POTCAR:    PAW_PBE Pt 04Feb2005                  

 ----------------------------------------------------------------------------- 
|                                                                             |
|           W    W    AA    RRRRR   N    N  II  N    N   GGGG   !!!           |
|           W    W   A  A   R    R  NN   N  II  NN   N  G    G  !!!           |
|           W    W  A    A  R    R  N N  N  II  N N  N  G       !!!           |
|           W WW W  AAAAAA  RRRRR   N  N N  II  N  N N  G  GGG   !            |
|           WW  WW  A    A  R   R   N   NN  II  N   NN  G    G                |
|           W    W  A    A  R    R  N    N  II  N    N   GGGG   !!!           |
|                                                                             |
|      For optimal performance we recommend to set                            |
|        NCORE= 4 - approx SQRT( number of cores)                             |
|      NCORE specifies how many cores store one orbital (NPAR=cpu/NCORE).     |
|      This setting can  greatly improve the performance of VASP for DFT.     |
|      The default,   NCORE=1            might be grossly inefficient         |
|      on modern multi-core architectures or massively parallel machines.     |
|      Do your own testing !!!!                                               |
|      Unfortunately you need to use the default for GW and RPA calculations. |
|      (for HF NCORE is supported but not extensively tested yet)             |
|                                                                             |
 ----------------------------------------------------------------------------- 


 ----------------------------------------------------------------------------- 
|                                                                             |
|           W    W    AA    RRRRR   N    N  II  N    N   GGGG   !!!           |
|           W    W   A  A   R    R  NN   N  II  NN   N  G    G  !!!           |
|           W    W  A    A  R    R  N N  N  II  N N  N  G       !!!           |
|           W WW W  AAAAAA  RRRRR   N  N N  II  N  N N  G  GGG   !            |
|           WW  WW  A    A  R   R   N   NN  II  N   NN  G    G                |
|           W    W  A    A  R    R  N    N  II  N    N   GGGG   !!!           |
|                                                                             |
|      You have enabled k-point parallelism (KPAR>1).                         |
|      This developmental code was originally  written by Paul Kent at ORNL,  |
|      and carefully double checked in Vienna.                                |
|      GW as well as linear response parallelism added by Martijn Marsman     |
|      and Georg Kresse.                                                      |
|      Carefully verify results versus KPAR=1.                                |
|      Report problems to Paul Kent and Vienna.                               |
|                                                                             |
 ----------------------------------------------------------------------------- 

 POTCAR:    PAW_PBE Cl 06Sep2000                  
   VRHFIN =Cl: s2p5                                                             
   LEXCH  = PE                                                                  
   EATOM  =   409.7259 eV,   30.1140 Ry                                         
                                                                                
   TITEL  = PAW_PBE Cl 06Sep2000                                                
   LULTRA =        F    use ultrasoft PP ?                                      
   IUNSCR =        1    unscreen: 0-lin 1-nonlin 2-no                           
   RPACOR =    1.500    partial core radius                                     
   POMASS =   35.453; ZVAL   =    7.000    mass and valenz                      
   RCORE  =    1.900    outmost cutoff radius                                   
   RWIGS  =    2.100; RWIGS  =    1.111    wigner-seitz radius (au A)           
   ENMAX  =  262.472; ENMIN  =  196.854 eV                                      
   ICORE  =        2    local potential                                         
   LCOR   =        T    correct aug charges                                     
   LPAW   =        T    paw PP                                                  
   EAUG   =  356.192                                                            
   DEXC   =    0.000                                                            
   RMAX   =    1.945    core radius for proj-oper                               
   RAUG   =    1.300    factor for augmentation sphere                          
   RDEP   =    2.020    radius for radial grids                                 
   RDEPT  =    1.678    core radius for aug-charge                              
                                                                                
   Atomic configuration                                                         
    6 entries                                                                   
     n  l   j            E        occ.                                          
     1  0  0.50     -2751.1850   2.0000                                         
     2  0  0.50      -252.6861   2.0000                                         
     2  1  1.50      -191.6157   6.0000                                         
     3  0  0.50       -20.6916   2.0000                                         
     3  1  0.50        -8.5949   5.0000                                         
     3  2  1.50        -8.1635   0.0000                                         
   Description                                                                  
     l       E           TYP  RCUT    TYP  RCUT                                 
     0    -20.6915656     23  1.900                                             
     0    -22.0521482     23  1.900                                             
     1     -8.5948577     23  1.900                                             
     1     -5.3847331     23  1.900                                             
     2     -8.1634956     23  1.900                                             
  local pseudopotential read in
  partial core-charges read in
  partial kinetic energy density read in
  atomic valenz-charges read in
  non local Contribution for L=           0  read in
    real space projection operators read in
  non local Contribution for L=           0  read in
    real space projection operators read in
  non local Contribution for L=           1  read in
    real space projection operators read in
  non local Contribution for L=           1  read in
    real space projection operators read in
    PAW grid and wavefunctions read in
 
   number of l-projection  operators is LMAX  =           4
   number of lm-projection operators is LMMAX =           8
 
 POTCAR:    PAW_PBE Br 06Sep2000                  
   VRHFIN =Br: s2p5                                                             
   LEXCH  = PE                                                                  
   EATOM  =   368.4488 eV,   27.0802 Ry                                         
                                                                                
   TITEL  = PAW_PBE Br 06Sep2000                                                
   LULTRA =        F    use ultrasoft PP ?                                      
   IUNSCR =        1    unscreen: 0-lin 1-nonlin 2-no                           
   RPACOR =    1.900    partial core radius                                     
   POMASS =   79.904; ZVAL   =    7.000    mass and valenz                      
   RCORE  =    2.100    outmost cutoff radius                                   
   RWIGS  =    2.200; RWIGS  =    1.164    wigner-seitz radius (au A)           
   ENMAX  =  216.285; ENMIN  =  162.214 eV                                      
   ICORE  =        3    local potential                                         
   LCOR   =        T    correct aug charges                                     
   LPAW   =        T    paw PP                                                  
   EAUG   =  503.852                                                            
   DEXC   =    0.000                                                            
   RMAX   =    2.139    core radius for proj-oper                               
   RAUG   =    1.300    factor for augmentation sphere                          
   RDEP   =    2.186    radius for radial grids                                 
   RDEPT  =    1.890    core radius for aug-charge                              
                                                                                
   Atomic configuration                                                         
   10 entries                                                                   
     n  l   j            E        occ.                                          
     1  0  0.50    -13316.2796   2.0000                                         
     2  0  0.50     -1732.8239   2.0000                                         
     2  1  1.50     -1528.2193   6.0000                                         
     3  0  0.50      -238.0460   2.0000                                         
     3  1  1.50      -173.4609   6.0000                                         
     3  2  2.50       -66.7132  10.0000                                         
     4  0  0.50       -20.1334   2.0000                                         
     4  1  0.50        -7.8591   5.0000                                         
     4  2  2.50        -8.1635   0.0000                                         
     4  3  2.50        -8.1635   0.0000                                         
   Description                                                                  
     l       E           TYP  RCUT    TYP  RCUT                                 
     0    -20.1333652     23  2.100                                             
     0    -21.4939478     23  2.100                                             
     1     -7.8591052     23  2.100                                             
     1     -3.1608434     23  2.100                                             
     2     -8.1634956     23  2.100                                             
     3     -1.3605826      7  2.100                                             
  local pseudopotential read in
  partial core-charges read in
  partial kinetic energy density read in
  atomic valenz-charges read in
  non local Contribution for L=           0  read in
    real space projection operators read in
  non local Contribution for L=           0  read in
    real space projection operators read in
  non local Contribution for L=           1  read in
    real space projection operators read in
  non local Contribution for L=           1  read in
    real space projection operators read in
  non local Contribution for L=           2  read in
    real space projection operators read in
    PAW grid and wavefunctions read in
 
   number of l-projection  operators is LMAX  =           5
   number of lm-projection operators is LMMAX =          13
 
 POTCAR:    PAW_PBE Pt 04Feb2005                  
   VRHFIN =Pt: s1d9                                                             
   LEXCH  = PE                                                                  
   EATOM  =   729.1176 eV,   53.5886 Ry                                         
                                                                                
   TITEL  = PAW_PBE Pt 04Feb2005                                                
   LULTRA =        F    use ultrasoft PP ?                                      
   IUNSCR =        1    unscreen: 0-lin 1-nonlin 2-no                           
   RPACOR =    2.330    partial core radius                                     
   POMASS =  195.080; ZVAL   =   10.000    mass and valenz                      
   RCORE  =    2.600    outmost cutoff radius                                   
   RWIGS  =    2.750; RWIGS  =    1.455    wigner-seitz radius (au A)           
   ENMAX  =  230.283; ENMIN  =  172.712 eV                                      
   ICORE  =        3    local potential                                         
   LCOR   =        T    correct aug charges                                     
   LPAW   =        T    paw PP                                                  
   EAUG   =  358.966                                                            
   DEXC   =    0.000                                                            
   RMAX   =    2.658    core radius for proj-oper                               
   RAUG   =    1.300    factor for augmentation sphere                          
   RDEP   =    2.761    radius for radial grids                                 
   RDEPT  =    2.203    core radius for aug-charge                              
                                                                                
   Atomic configuration                                                         
   16 entries                                                                   
     n  l   j            E        occ.                                          
     1  0  0.50    -78401.1885   2.0000                                         
     2  0  0.50    -13770.7750   2.0000                                         
     2  1  1.50    -11931.0468   6.0000                                         
     3  0  0.50     -3234.7234   2.0000                                         
     3  1  1.50     -2699.2216   6.0000                                         
     3  2  2.50     -2119.5714  10.0000                                         
     4  0  0.50      -695.1528   2.0000                                         
     4  1  1.50      -519.6034   6.0000                                         
     4  2  2.50      -306.6786  10.0000                                         
     4  3  3.50       -70.1041  14.0000                                         
     5  0  0.50      -101.7747   2.0000                                         
     5  1  1.50       -55.9873   6.0000                                         
     5  2  2.50        -6.1423   9.0000                                         
     6  0  0.50        -5.6573   1.0000                                         
     6  1  1.50        -6.8029   0.0000                                         
     5  3  2.50        -1.3606   0.0000                                         
   Description                                                                  
     l       E           TYP  RCUT    TYP  RCUT                                 
     2     -6.1423404     23  2.500                                             
     2     -7.5029230     23  2.500                                             
     0     -5.6573207     23  2.500                                             
     0      0.7416693     23  2.500                                             
     1     -2.7211652     23  2.600                                             
     1     20.4087390     23  2.600                                             
     3     -1.3605826     23  2.500                                             
  local pseudopotential read in
  partial core-charges read in
  partial kinetic energy density read in
  atomic valenz-charges read in
  non local Contribution for L=           2  read in
    real space projection operators read in
  non local Contribution for L=           2  read in
    real space projection operators read in
  non local Contribution for L=           0  read in
    real space projection operators read in
  non local Contribution for L=           0  read in
    real space projection operators read in
  non local Contribution for L=           1  read in
    real space projection operators read in
  non local Contribution for L=           1  read in
    real space projection operators read in
    PAW grid and wavefunctions read in
 
   number of l-projection  operators is LMAX  =           6
   number of lm-projection operators is LMMAX =          18
 
  PAW_PBE Cl 06Sep2000                  :
 energy of atom  1       EATOM= -409.7259
 kinetic energy error for atom=    0.0089 (will be added to EATOM!!)
  PAW_PBE Br 06Sep2000                  :
 energy of atom  2       EATOM= -368.4488
 kinetic energy error for atom=    0.0032 (will be added to EATOM!!)
  PAW_PBE Pt 04Feb2005                  :
 energy of atom  3       EATOM= -729.1176
 kinetic energy error for atom=    0.0056 (will be added to EATOM!!)
 
 
 POSCAR: ClBrPt2                                 
  positions in direct lattice
  velocities in cartesian coordinates
 exchange correlation table for  LEXCH =        8
   RHO(1)=    0.500       N(1)  =     2000
   RHO(2)=  100.500       N(2)  =     4000
 


--------------------------------------------------------------------------------------------------------


 ion  position               nearest neighbor table
   1  0.000  0.500  0.170-   4 2.49   4 2.49   4 2.49
   2  0.000  0.500  0.385-   3 2.58   3 2.58   3 2.58
   3  0.333  0.167  0.310-   4 2.58   4 2.58   4 2.58   2 2.58   2 2.58   2 2.58
   4  0.667  0.833  0.236-   1 2.49   1 2.49   1 2.49   3 2.58   3 2.58   3 2.58
 

IMPORTANT INFORMATION: All symmetrisations will be switched off!
NOSYMM: (Re-)initialisation of all symmetry stuff for point group C_1.

 
 
 KPOINTS: Automatic mesh                          

Automatic generation of k-mesh.
Space group operators:
 irot       det(A)        alpha          n_x          n_y          n_z        tau_x        tau_y        tau_z
    1     1.000000     0.000000     1.000000     0.000000     0.000000     0.000000     0.000000     0.000000
 
 Subroutine IBZKPT returns following result:
 ===========================================
 
 Found     64 irreducible k-points:
 
 Following reciprocal coordinates:
            Coordinates               Weight
  0.000000  0.000000  0.000000      1.000000
  0.125000 -0.000000  0.000000      1.000000
  0.250000 -0.000000  0.000000      1.000000
  0.375000 -0.000000  0.000000      1.000000
  0.500000 -0.000000  0.000000      1.000000
 -0.375000  0.000000  0.000000      1.000000
 -0.250000  0.000000  0.000000      1.000000
 -0.125000  0.000000  0.000000      1.000000
  0.000000  0.125000  0.000000      1.000000
  0.125000  0.125000  0.000000      1.000000
  0.250000  0.125000  0.000000      1.000000
  0.375000  0.125000  0.000000      1.000000
  0.500000  0.125000  0.000000      1.000000
 -0.375000  0.125000  0.000000      1.000000
 -0.250000  0.125000  0.000000      1.000000
 -0.125000  0.125000  0.000000      1.000000
  0.000000  0.250000  0.000000      1.000000
  0.125000  0.250000  0.000000      1.000000
  0.250000  0.250000  0.000000      1.000000
  0.375000  0.250000  0.000000      1.000000
  0.500000  0.250000  0.000000      1.000000
 -0.375000  0.250000  0.000000      1.000000
 -0.250000  0.250000  0.000000      1.000000
 -0.125000  0.250000  0.000000      1.000000
  0.000000  0.375000  0.000000      1.000000
  0.125000  0.375000  0.000000      1.000000
  0.250000  0.375000  0.000000      1.000000
  0.375000  0.375000  0.000000      1.000000
  0.500000  0.375000  0.000000      1.000000
 -0.375000  0.375000  0.000000      1.000000
 -0.250000  0.375000  0.000000      1.000000
 -0.125000  0.375000  0.000000      1.000000
  0.000000  0.500000  0.000000      1.000000
  0.125000  0.500000  0.000000      1.000000
  0.250000  0.500000  0.000000      1.000000
  0.375000  0.500000  0.000000      1.000000
  0.500000  0.500000  0.000000      1.000000
 -0.375000  0.500000  0.000000      1.000000
 -0.250000  0.500000  0.000000      1.000000
 -0.125000  0.500000  0.000000      1.000000
 -0.000000 -0.375000  0.000000      1.000000
  0.125000 -0.375000  0.000000      1.000000
  0.250000 -0.375000  0.000000      1.000000
  0.375000 -0.375000  0.000000      1.000000
  0.500000 -0.375000  0.000000      1.000000
 -0.375000 -0.375000  0.000000      1.000000
 -0.250000 -0.375000  0.000000      1.000000
 -0.125000 -0.375000  0.000000      1.000000
 -0.000000 -0.250000  0.000000      1.000000
  0.125000 -0.250000  0.000000      1.000000
  0.250000 -0.250000  0.000000      1.000000
  0.375000 -0.250000  0.000000      1.000000
  0.500000 -0.250000  0.000000      1.000000
 -0.375000 -0.250000  0.000000      1.000000
 -0.250000 -0.250000  0.000000      1.000000
 -0.125000 -0.250000  0.000000      1.000000
 -0.000000 -0.125000  0.000000      1.000000
  0.125000 -0.125000  0.000000      1.000000
  0.250000 -0.125000  0.000000      1.000000
  0.375000 -0.125000  0.000000      1.000000
  0.500000 -0.125000  0.000000      1.000000
 -0.375000 -0.125000  0.000000      1.000000
 -0.250000 -0.125000  0.000000      1.000000
 -0.125000 -0.125000  0.000000      1.000000
 
 Following cartesian coordinates:
            Coordinates               Weight
  0.000000  0.000000  0.000000      1.000000
  0.034389  0.019398  0.000000      1.000000
  0.068778  0.038796  0.000000      1.000000
  0.103167  0.058193  0.000000      1.000000
  0.137557  0.077591  0.000000      1.000000
 -0.103167 -0.058193  0.000000      1.000000
 -0.068778 -0.038796  0.000000      1.000000
 -0.034389 -0.019398  0.000000      1.000000
  0.000396  0.039481  0.000000      1.000000
  0.034785  0.058879  0.000000      1.000000
  0.069174  0.078276  0.000000      1.000000
  0.103563  0.097674  0.000000      1.000000
  0.137952  0.117072  0.000000      1.000000
 -0.102772 -0.018713  0.000000      1.000000
 -0.068383  0.000685  0.000000      1.000000
 -0.033994  0.020083  0.000000      1.000000
  0.000791  0.078962  0.000000      1.000000
  0.035180  0.098359  0.000000      1.000000
  0.069570  0.117757  0.000000      1.000000
  0.103959  0.137155  0.000000      1.000000
  0.138348  0.156553  0.000000      1.000000
 -0.102376  0.020768  0.000000      1.000000
 -0.067987  0.040166  0.000000      1.000000
 -0.033598  0.059564  0.000000      1.000000
  0.001187  0.118442  0.000000      1.000000
  0.035576  0.137840  0.000000      1.000000
  0.069965  0.157238  0.000000      1.000000
  0.104354  0.176636  0.000000      1.000000
  0.138743  0.196033  0.000000      1.000000
 -0.101981  0.060249  0.000000      1.000000
 -0.067591  0.079647  0.000000      1.000000
 -0.033202  0.099045  0.000000      1.000000
  0.001582  0.157923  0.000000      1.000000
  0.035972  0.177321  0.000000      1.000000
  0.070361  0.196719  0.000000      1.000000
  0.104750  0.216116  0.000000      1.000000
  0.139139  0.235514  0.000000      1.000000
 -0.101585  0.099730  0.000000      1.000000
 -0.067196  0.119128  0.000000      1.000000
 -0.032807  0.138525  0.000000      1.000000
 -0.001187 -0.118442  0.000000      1.000000
  0.033202 -0.099045  0.000000      1.000000
  0.067591 -0.079647  0.000000      1.000000
  0.101981 -0.060249  0.000000      1.000000
  0.136370 -0.040851  0.000000      1.000000
 -0.104354 -0.176636  0.000000      1.000000
 -0.069965 -0.157238  0.000000      1.000000
 -0.035576 -0.137840  0.000000      1.000000
 -0.000791 -0.078962  0.000000      1.000000
  0.033598 -0.059564  0.000000      1.000000
  0.067987 -0.040166  0.000000      1.000000
  0.102376 -0.020768  0.000000      1.000000
  0.136765 -0.001370  0.000000      1.000000
 -0.103959 -0.137155  0.000000      1.000000
 -0.069570 -0.117757  0.000000      1.000000
 -0.035180 -0.098359  0.000000      1.000000
 -0.000396 -0.039481  0.000000      1.000000
  0.033994 -0.020083  0.000000      1.000000
  0.068383 -0.000685  0.000000      1.000000
  0.102772  0.018713  0.000000      1.000000
  0.137161  0.038110  0.000000      1.000000
 -0.103563 -0.097674  0.000000      1.000000
 -0.069174 -0.078276  0.000000      1.000000
 -0.034785 -0.058879  0.000000      1.000000
 


--------------------------------------------------------------------------------------------------------




 Dimension of arrays:
   k-points           NKPTS =     64   k-points in BZ     NKDIM =     64   number of bands    NBANDS=     22
   number of dos      NEDOS =    301   number of ions     NIONS =      4
   non local maximal  LDIM  =      6   non local SUM 2l+1 LMDIM =     18
   total plane-waves  NPLWV =  80640
   max r-space proj   IRMAX =      1   max aug-charges    IRDMAX=  21297
   dimension x,y,z NGX =    24 NGY =   24 NGZ =  140
   dimension x,y,z NGXF=    48 NGYF=   48 NGZF=  280
   support grid    NGXF=    48 NGYF=   48 NGZF=  280
   ions per type =               1   1   2
   NGX,Y,Z   is equivalent  to a cutoff of  10.91, 10.91, 11.64 a.u.
   NGXF,Y,Z  is equivalent  to a cutoff of  21.83, 21.83, 23.27 a.u.

 SYSTEM =  unknown system                          
 POSCAR =  ClBrPt2                                 

 Startparameter for this run:
   NWRITE =      2    write-flag & timer
   PREC   = accura    normal or accurate (medium, high low for compatibility)
   ISTART =      0    job   : 0-new  1-cont  2-samecut
   ICHARG =      2    charge: 1-file 2-atom 10-const
   ISPIN  =      1    spin polarized calculation?
   LNONCOLLINEAR =      F non collinear calculations
   LSORBIT =      F    spin-orbit coupling
   INIWAV =      1    electr: 0-lowe 1-rand  2-diag
   LASPH  =      F    aspherical Exc in radial PAW
   METAGGA=      F    non-selfconsistent MetaGGA calc.

 Electronic Relaxation 1
   ENCUT  =  400.0 eV  29.40 Ry    5.42 a.u.   5.96  5.96 32.61*2*pi/ulx,y,z
   ENINI  =  400.0     initial cutoff
   ENAUG  =  503.9 eV  augmentation charge cutoff
   NELM   =     60;   NELMIN=  2; NELMDL= -5     # of ELM steps 
   EDIFF  = 0.5E-07   stopping-criterion for ELM
   LREAL  =      F    real-space projection
   NLSPLINE    = F    spline interpolate recip. space projectors
   LCOMPAT=      F    compatible to vasp.4.4
   GGA_COMPAT  = T    GGA compatible to vasp.4.4-vasp.4.6
   LMAXPAW     = -100 max onsite density
   LMAXMIX     =    2 max onsite mixed and CHGCAR
   VOSKOWN=      0    Vosko Wilk Nusair interpolation
   ROPT   =    0.00000   0.00000   0.00000
 Ionic relaxation
   EDIFFG = 0.5E-06   stopping-criterion for IOM
   NSW    =    100    number of steps for IOM
   NBLOCK =      1;   KBLOCK =    100    inner block; outer block 
   IBRION =      1    ionic relax: 0-MD 1-quasi-New 2-CG
   NFREE  =      0    steps in history (QN), initial steepest desc. (CG)
   ISIF   =      3    stress and relaxation
   IWAVPR =     11    prediction:  0-non 1-charg 2-wave 3-comb
   ISYM   =     -1    0-nonsym 1-usesym 2-fastsym
   LCORR  =      T    Harris-Foulkes like correction to forces

   POTIM  = 0.5000    time-step for ionic-motion
   TEIN   =    0.0    initial temperature
   TEBEG  =    0.0;   TEEND  =   0.0 temperature during run
   SMASS  =  -3.00    Nose mass-parameter (am)
   estimated Nose-frequenzy (Omega)   =  0.10E-29 period in steps =****** mass=  -0.305E-27a.u.
   SCALEE = 1.0000    scale energy and forces
   NPACO  =    256;   APACO  = 16.0  distance and # of slots for P.C.
   PSTRESS=    0.0 pullay stress

  Mass of Ions in am
   POMASS =  35.45 79.90195.08
  Ionic Valenz
   ZVAL   =   7.00  7.00 10.00
  Atomic Wigner-Seitz radii
   RWIGS  =  -1.00 -1.00 -1.00
  virtual crystal weights 
   VCA    =   1.00  1.00  1.00
   NELECT =      34.0000    total number of electrons
   NUPDOWN=      -1.0000    fix difference up-down

 DOS related values:
   EMIN   =  10.00;   EMAX   =-10.00  energy-range for DOS
   EFERMI =   0.00
   ISMEAR =     0;   SIGMA  =   0.10  broadening in eV -4-tet -1-fermi 0-gaus

 Electronic relaxation 2 (details)
   IALGO  =     38    algorithm
   LDIAG  =      T    sub-space diagonalisation (order eigenvalues)
   LSUBROT=      F    optimize rotation matrix (better conditioning)
   TURBO    =      0    0=normal 1=particle mesh
   IRESTART =      0    0=no restart 2=restart with 2 vectors
   NREBOOT  =      0    no. of reboots
   NMIN     =      0    reboot dimension
   EREF     =   0.00    reference energy to select bands
   IMIX   =      4    mixing-type and parameters
     AMIX     =   0.40;   BMIX     =  1.00
     AMIX_MAG =   1.60;   BMIX_MAG =  1.00
     AMIN     =   0.10
     WC   =   100.;   INIMIX=   1;  MIXPRE=   1;  MAXMIX= -45

 Intra band minimization:
   WEIMIN = 0.0010     energy-eigenvalue tresh-hold
   EBREAK =  0.57E-09  absolut break condition
   DEPER  =   0.30     relativ break condition  

   TIME   =   0.40     timestep for ELM

  volume/ion in A,a.u.               =      57.87       390.52
  Fermi-wavevector in a.u.,A,eV,Ry     =   0.863773  1.632294 10.151359  0.746104
  Thomas-Fermi vector in A             =   1.981772
 
 Write flags
   LWAVE        =      T    write WAVECAR
   LDOWNSAMPLE  =      F    k-point downsampling of WAVECAR
   LCHARG       =      T    write CHGCAR
   LVTOT        =      F    write LOCPOT, total local potential
   LVHAR        =      F    write LOCPOT, Hartree potential only
   LELF         =      F    write electronic localiz. function (ELF)
   LORBIT       =      0    0 simple, 1 ext, 2 COOP (PROOUT), +10 PAW based schemes


 Dipole corrections
   LMONO  =      F    monopole corrections only (constant potential shift)
   LDIPOL =      T    correct potential (dipole corrections)
   IDIPOL =      3    1-x, 2-y, 3-z, 4-all directions 
   EPSILON=  1.0000000 bulk dielectric constant

 Exchange correlation treatment:
   GGA     =    --    GGA type
   LEXCH   =     8    internal setting for exchange type
   VOSKOWN=      0    Vosko Wilk Nusair interpolation
   LHFCALC =     F    Hartree Fock is set to
   LHFONE  =     F    Hartree Fock one center treatment
   AEXX    =    0.0000 exact exchange contribution

 Linear response parameters
   LEPSILON=     F    determine dielectric tensor
   LRPA    =     F    only Hartree local field effects (RPA)
   LNABLA  =     F    use nabla operator in PAW spheres
   LVEL    =     F    velocity operator in full k-point grid
   LINTERFAST=   F  fast interpolation
   KINTER  =     0    interpolate to denser k-point grid
   CSHIFT  =0.1000    complex shift for real part using Kramers Kronig
   OMEGAMAX=  -1.0    maximum frequency
   DEG_THRESHOLD= 0.2000000E-02 threshold for treating states as degnerate
   RTIME   =   -0.100 relaxation time in fs
  (WPLASMAI=    0.000 imaginary part of plasma frequency in eV, 0.658/RTIME)
   DFIELD  = 0.0000000 0.0000000 0.0000000 field for delta impulse in time
 
 Orbital magnetization related:
   ORBITALMAG=     F  switch on orbital magnetization
   LCHIMAG   =     F  perturbation theory with respect to B field
   DQ        =  0.001000  dq finite difference perturbation B field
   LLRAUG    =     F  two centre corrections for induced B field



--------------------------------------------------------------------------------------------------------


 quasi-Newton-method for relaxation of ions
 charge density and potential will be updated during run
 non-spin polarized calculation
 Variant of blocked Davidson
 Davidson routine will perform the subspace rotation
 perform sub-space diagonalisation
    after iterative eigenvector-optimisation
 modified Broyden-mixing scheme, WC =      100.0
 initial mixing is a Kerker type mixing with AMIX =  0.4000 and BMIX =      1.0000
 Hartree-type preconditioning will be used
 using additional bands            5
 reciprocal scheme for non local part
 use partial core corrections
 calculate Harris-corrections to forces 
   (improved forces if not selfconsistent)
 use gradient corrections 
 use of overlap-Matrix (Vanderbilt PP)
 Gauss-broadening in eV      SIGMA  =   0.10


--------------------------------------------------------------------------------------------------------


  energy-cutoff  :      400.00
  volume of cell :      231.48
      direct lattice vectors                 reciprocal lattice vectors
     3.655528009 -0.036629028  0.000000000     0.275113245  0.155182161  0.000000000
    -1.796041249  3.184094946  0.000000000     0.003164834  0.315846163  0.000000000
     0.000000000  0.000000000 20.000000000     0.000000000  0.000000000  0.050000000

  length of vectors
     3.655711519  3.655711256 20.000000000     0.315861996  0.315862019  0.050000000


 
 k-points in units of 2pi/SCALE and weight: Automatic mesh                          
   0.00000000  0.00000000  0.00000000       0.016
   0.03438916  0.01939777  0.00000000       0.016
   0.06877831  0.03879554  0.00000000       0.016
   0.10316747  0.05819331  0.00000000       0.016
   0.13755662  0.07759108  0.00000000       0.016
  -0.10316747 -0.05819331  0.00000000       0.016
  -0.06877831 -0.03879554  0.00000000       0.016
  -0.03438916 -0.01939777  0.00000000       0.016
   0.00039560  0.03948077  0.00000000       0.016
   0.03478476  0.05887854  0.00000000       0.016
   0.06917392  0.07827631  0.00000000       0.016
   0.10356307  0.09767408  0.00000000       0.016
   0.13795223  0.11707185  0.00000000       0.016
  -0.10277186 -0.01871254  0.00000000       0.016
  -0.06838271  0.00068523  0.00000000       0.016
  -0.03399355  0.02008300  0.00000000       0.016
   0.00079121  0.07896154  0.00000000       0.016
   0.03518036  0.09835931  0.00000000       0.016
   0.06956952  0.11775708  0.00000000       0.016
   0.10395868  0.13715485  0.00000000       0.016
   0.13834783  0.15655262  0.00000000       0.016
  -0.10237626  0.02076823  0.00000000       0.016
  -0.06798710  0.04016600  0.00000000       0.016
  -0.03359795  0.05956377  0.00000000       0.016
   0.00118681  0.11844231  0.00000000       0.016
   0.03557597  0.13784008  0.00000000       0.016
   0.06996512  0.15723785  0.00000000       0.016
   0.10435428  0.17663562  0.00000000       0.016
   0.13874343  0.19603339  0.00000000       0.016
  -0.10198065  0.06024900  0.00000000       0.016
  -0.06759150  0.07964677  0.00000000       0.016
  -0.03320234  0.09904454  0.00000000       0.016
   0.00158242  0.15792308  0.00000000       0.016
   0.03597157  0.17732085  0.00000000       0.016
   0.07036073  0.19671862  0.00000000       0.016
   0.10474988  0.21611639  0.00000000       0.016
   0.13913904  0.23551416  0.00000000       0.016
  -0.10158505  0.09972977  0.00000000       0.016
  -0.06719589  0.11912754  0.00000000       0.016
  -0.03280674  0.13852531  0.00000000       0.016
  -0.00118681 -0.11844231  0.00000000       0.016
   0.03320234 -0.09904454  0.00000000       0.016
   0.06759150 -0.07964677  0.00000000       0.016
   0.10198065 -0.06024900  0.00000000       0.016
   0.13636981 -0.04085123  0.00000000       0.016
  -0.10435428 -0.17663562  0.00000000       0.016
  -0.06996512 -0.15723785  0.00000000       0.016
  -0.03557597 -0.13784008  0.00000000       0.016
  -0.00079121 -0.07896154  0.00000000       0.016
   0.03359795 -0.05956377  0.00000000       0.016
   0.06798710 -0.04016600  0.00000000       0.016
   0.10237626 -0.02076823  0.00000000       0.016
   0.13676541 -0.00137046  0.00000000       0.016
  -0.10395868 -0.13715485  0.00000000       0.016
  -0.06956952 -0.11775708  0.00000000       0.016
  -0.03518036 -0.09835931  0.00000000       0.016
  -0.00039560 -0.03948077  0.00000000       0.016
   0.03399355 -0.02008300  0.00000000       0.016
   0.06838271 -0.00068523  0.00000000       0.016
   0.10277186  0.01871254  0.00000000       0.016
   0.13716102  0.03811031  0.00000000       0.016
  -0.10356307 -0.09767408  0.00000000       0.016
  -0.06917392 -0.07827631  0.00000000       0.016
  -0.03478476 -0.05887854  0.00000000       0.016
 
 k-points in reciprocal lattice and weights: Automatic mesh                          
   0.00000000  0.00000000  0.00000000       0.016
   0.12500000 -0.00000000  0.00000000       0.016
   0.25000000 -0.00000000  0.00000000       0.016
   0.37500000 -0.00000000  0.00000000       0.016
   0.50000000 -0.00000000  0.00000000       0.016
  -0.37500000  0.00000000  0.00000000       0.016
  -0.25000000  0.00000000  0.00000000       0.016
  -0.12500000  0.00000000  0.00000000       0.016
   0.00000000  0.12500000  0.00000000       0.016
   0.12500000  0.12500000  0.00000000       0.016
   0.25000000  0.12500000  0.00000000       0.016
   0.37500000  0.12500000  0.00000000       0.016
   0.50000000  0.12500000  0.00000000       0.016
  -0.37500000  0.12500000  0.00000000       0.016
  -0.25000000  0.12500000  0.00000000       0.016
  -0.12500000  0.12500000  0.00000000       0.016
   0.00000000  0.25000000  0.00000000       0.016
   0.12500000  0.25000000  0.00000000       0.016
   0.25000000  0.25000000  0.00000000       0.016
   0.37500000  0.25000000  0.00000000       0.016
   0.50000000  0.25000000  0.00000000       0.016
  -0.37500000  0.25000000  0.00000000       0.016
  -0.25000000  0.25000000  0.00000000       0.016
  -0.12500000  0.25000000  0.00000000       0.016
   0.00000000  0.37500000  0.00000000       0.016
   0.12500000  0.37500000  0.00000000       0.016
   0.25000000  0.37500000  0.00000000       0.016
   0.37500000  0.37500000  0.00000000       0.016
   0.50000000  0.37500000  0.00000000       0.016
  -0.37500000  0.37500000  0.00000000       0.016
  -0.25000000  0.37500000  0.00000000       0.016
  -0.12500000  0.37500000  0.00000000       0.016
   0.00000000  0.50000000  0.00000000       0.016
   0.12500000  0.50000000  0.00000000       0.016
   0.25000000  0.50000000  0.00000000       0.016
   0.37500000  0.50000000  0.00000000       0.016
   0.50000000  0.50000000  0.00000000       0.016
  -0.37500000  0.50000000  0.00000000       0.016
  -0.25000000  0.50000000  0.00000000       0.016
  -0.12500000  0.50000000  0.00000000       0.016
  -0.00000000 -0.37500000  0.00000000       0.016
   0.12500000 -0.37500000  0.00000000       0.016
   0.25000000 -0.37500000  0.00000000       0.016
   0.37500000 -0.37500000  0.00000000       0.016
   0.50000000 -0.37500000  0.00000000       0.016
  -0.37500000 -0.37500000  0.00000000       0.016
  -0.25000000 -0.37500000  0.00000000       0.016
  -0.12500000 -0.37500000  0.00000000       0.016
  -0.00000000 -0.25000000  0.00000000       0.016
   0.12500000 -0.25000000  0.00000000       0.016
   0.25000000 -0.25000000  0.00000000       0.016
   0.37500000 -0.25000000  0.00000000       0.016
   0.50000000 -0.25000000  0.00000000       0.016
  -0.37500000 -0.25000000  0.00000000       0.016
  -0.25000000 -0.25000000  0.00000000       0.016
  -0.12500000 -0.25000000  0.00000000       0.016
  -0.00000000 -0.12500000  0.00000000       0.016
   0.12500000 -0.12500000  0.00000000       0.016
   0.25000000 -0.12500000  0.00000000       0.016
   0.37500000 -0.12500000  0.00000000       0.016
   0.50000000 -0.12500000  0.00000000       0.016
  -0.37500000 -0.12500000  0.00000000       0.016
  -0.25000000 -0.12500000  0.00000000       0.016
  -0.12500000 -0.12500000  0.00000000       0.016
 
 position of ions in fractional coordinates (direct lattice) 
   0.00003260  0.49996075  0.16956139
   0.00003230  0.49996081  0.38463917
   0.33336554  0.16662771  0.31010675
   0.66669896  0.83329437  0.23592599
 
 position of ions in cartesian coordinates  (Angst):
  -0.89783095  1.59192129  3.39122782
  -0.89783219  1.59192152  7.69278339
   0.91935684  0.51834759  6.20213491
   0.94050565  2.62886786  4.71851980
 


--------------------------------------------------------------------------------------------------------


 k-point  1 :   0.0000 0.0000 0.0000  plane waves:    4175
 k-point  2 :   0.1250-0.0000 0.0000  plane waves:    4155
 k-point  3 :   0.2500-0.0000 0.0000  plane waves:    4184
 k-point  4 :   0.3750-0.0000 0.0000  plane waves:    4184
 k-point  5 :   0.5000-0.0000 0.0000  plane waves:    4208
 k-point  6 :  -0.3750 0.0000 0.0000  plane waves:    4184
 k-point  7 :  -0.2500 0.0000 0.0000  plane waves:    4184
 k-point  8 :  -0.1250 0.0000 0.0000  plane waves:    4155
 k-point  9 :   0.0000 0.1250 0.0000  plane waves:    4155
 k-point 10 :   0.1250 0.1250 0.0000  plane waves:    4184
 k-point 11 :   0.2500 0.1250 0.0000  plane waves:    4221
 k-point 12 :   0.3750 0.1250 0.0000  plane waves:    4225
 k-point 13 :   0.5000 0.1250 0.0000  plane waves:    4225
 k-point 14 :  -0.3750 0.1250 0.0000  plane waves:    4221
 k-point 15 :  -0.2500 0.1250 0.0000  plane waves:    4184
 k-point 16 :  -0.1250 0.1250 0.0000  plane waves:    4155
 k-point 17 :   0.0000 0.2500 0.0000  plane waves:    4184
 k-point 18 :   0.1250 0.2500 0.0000  plane waves:    4221
 k-point 19 :   0.2500 0.2500 0.0000  plane waves:    4214
 k-point 20 :   0.3750 0.2500 0.0000  plane waves:    4244
 k-point 21 :   0.5000 0.2500 0.0000  plane waves:    4214
 k-point 22 :  -0.3750 0.2500 0.0000  plane waves:    4221
 k-point 23 :  -0.2500 0.2500 0.0000  plane waves:    4184
 k-point 24 :  -0.1250 0.2500 0.0000  plane waves:    4184
 k-point 25 :   0.0000 0.3750 0.0000  plane waves:    4184
 k-point 26 :   0.1250 0.3750 0.0000  plane waves:    4225
 k-point 27 :   0.2500 0.3750 0.0000  plane waves:    4244
 k-point 28 :   0.3750 0.3750 0.0000  plane waves:    4244
 k-point 29 :   0.5000 0.3750 0.0000  plane waves:    4225
 k-point 30 :  -0.3750 0.3750 0.0000  plane waves:    4184
 k-point 31 :  -0.2500 0.3750 0.0000  plane waves:    4221
 k-point 32 :  -0.1250 0.3750 0.0000  plane waves:    4221
 k-point 33 :   0.0000 0.5000 0.0000  plane waves:    4208
 k-point 34 :   0.1250 0.5000 0.0000  plane waves:    4225
 k-point 35 :   0.2500 0.5000 0.0000  plane waves:    4214
 k-point 36 :   0.3750 0.5000 0.0000  plane waves:    4225
 k-point 37 :   0.5000 0.5000 0.0000  plane waves:    4208
 k-point 38 :  -0.3750 0.5000 0.0000  plane waves:    4225
 k-point 39 :  -0.2500 0.5000 0.0000  plane waves:    4214
 k-point 40 :  -0.1250 0.5000 0.0000  plane waves:    4225
 k-point 41 :  -0.0000-0.3750 0.0000  plane waves:    4184
 k-point 42 :   0.1250-0.3750 0.0000  plane waves:    4221
 k-point 43 :   0.2500-0.3750 0.0000  plane waves:    4221
 k-point 44 :   0.3750-0.3750 0.0000  plane waves:    4184
 k-point 45 :   0.5000-0.3750 0.0000  plane waves:    4225
 k-point 46 :  -0.3750-0.3750 0.0000  plane waves:    4244
 k-point 47 :  -0.2500-0.3750 0.0000  plane waves:    4244
 k-point 48 :  -0.1250-0.3750 0.0000  plane waves:    4225
 k-point 49 :  -0.0000-0.2500 0.0000  plane waves:    4184
 k-point 50 :   0.1250-0.2500 0.0000  plane waves:    4184
 k-point 51 :   0.2500-0.2500 0.0000  plane waves:    4184
 k-point 52 :   0.3750-0.2500 0.0000  plane waves:    4221
 k-point 53 :   0.5000-0.2500 0.0000  plane waves:    4214
 k-point 54 :  -0.3750-0.2500 0.0000  plane waves:    4244
 k-point 55 :  -0.2500-0.2500 0.0000  plane waves:    4214
 k-point 56 :  -0.1250-0.2500 0.0000  plane waves:    4221
 k-point 57 :  -0.0000-0.1250 0.0000  plane waves:    4155
 k-point 58 :   0.1250-0.1250 0.0000  plane waves:    4155
 k-point 59 :   0.2500-0.1250 0.0000  plane waves:    4184
 k-point 60 :   0.3750-0.1250 0.0000  plane waves:    4221
 k-point 61 :   0.5000-0.1250 0.0000  plane waves:    4225
 k-point 62 :  -0.3750-0.1250 0.0000  plane waves:    4225
 k-point 63 :  -0.2500-0.1250 0.0000  plane waves:    4221
 k-point 64 :  -0.1250-0.1250 0.0000  plane waves:    4184

 maximum and minimum number of plane-waves per node :      4244     4155

 maximum number of plane-waves:      4244
 maximum index in each direction: 
   IXMAX=    6   IYMAX=    6   IZMAX=   32
   IXMIN=   -6   IYMIN=   -6   IZMIN=  -32


 serial   3D FFT for wavefunctions
 parallel 3D FFT for charge:
    minimum data exchange during FFTs selected (reduces bandwidth)


 total amount of memory used by VASP MPI-rank0   231325. kBytes
=======================================================================

   base      :      30000. kBytes
   nonl-proj :     117609. kBytes
   fftplans  :      11208. kBytes
   grid      :      23989. kBytes
   one-center:         62. kBytes
   wavefun   :      48457. kBytes
 
     INWAV:  cpu time    0.0000: real time    0.0000
 Broyden mixing: mesh for mixing (old mesh)
   NGX = 11   NGY = 11   NGZ = 65
  (NGX  = 48   NGY  = 48   NGZ  =280)
  gives a total of   7865 points

 initial charge density was supplied:
 charge density of overlapping atoms calculated
 number of electron      34.0000000 magnetization 
 keeping initial charge density in first step


--------------------------------------------------------------------------------------------------------


 Maximum index for augmentation-charges        10207 (set IRDMAX)


--------------------------------------------------------------------------------------------------------


 First call to EWALD:  gamma=   0.289
 Maximum number of real-space cells 5x 5x 1
 Maximum number of reciprocal cells 2x 2x 8

    FEWALD:  cpu time    0.0015: real time    0.0015


--------------------------------------- Iteration      1(   1)  ---------------------------------------


    POTLOK:  cpu time    0.3091: real time    0.3092
    SETDIJ:  cpu time    0.0079: real time    0.0079
     EDDAV:  cpu time    3.7904: real time    3.7906
       DOS:  cpu time    0.0011: real time    0.0011
    --------------------------------------------
      LOOP:  cpu time    4.1086: real time    4.1088

 eigenvalue-minimisations  :  2816
 total energy-change (2. order) : 0.2441720E+03  (-0.1165079E+04)
 number of electron      34.0000000 magnetization 
 augmentation part       34.0000000 magnetization 

 DIPCOR: dipole corrections for dipol
 direction  3 min pos   213,
 dipolmoment           0.000000      0.000000     -0.000023 electrons x Angstroem
 Tr[quadrupol]       -80.183186

 energy correction for charged system         0.000000 eV
 dipol+quadrupol energy correction           -0.000000 eV
 added-field ion interaction          0.000215 eV  (added to PSCEN)


 Free energy of the ion-electron system (eV)
  ---------------------------------------------------
  alpha Z        PSCENC =        41.93302019
  Ewald energy   TEWEN  =      5929.68701242
  -Hartree energ DENC   =     -8117.30984524
  -exchange      EXHF   =         0.00000000
  -V(xc)+E(xc)   XCENC  =        37.14388846
  PAW double counting   =      2012.60260865    -1949.97488812
  entropy T*S    EENTRO =        -0.00974802
  eigenvalues    EBANDS =        53.71348470
  atomic energy  EATOM  =      2236.38650011
  Solvation  Ediel_sol  =         0.00000000
  ---------------------------------------------------
  free energy    TOTEN  =       244.17203315 eV

  energy without entropy =      244.18178116  energy(sigma->0) =      244.17690716


--------------------------------------------------------------------------------------------------------




--------------------------------------- Iteration      1(   2)  ---------------------------------------


     EDDAV:  cpu time    5.3270: real time    5.3274
       DOS:  cpu time    0.0008: real time    0.0008
    --------------------------------------------
      LOOP:  cpu time    5.3278: real time    5.3283

 eigenvalue-minimisations  :  4194
 total energy-change (2. order) :-0.2388534E+03  (-0.2271748E+03)
 number of electron      34.0000000 magnetization 
 augmentation part       34.0000000 magnetization 

 DIPCOR: dipole corrections for dipol
 direction  3 min pos   213,
 dipolmoment           0.000000      0.000000     -0.000023 electrons x Angstroem
 Tr[quadrupol]       -80.183186

 energy correction for charged system         0.000000 eV
 dipol+quadrupol energy correction           -0.000000 eV
 added-field ion interaction          0.000215 eV  (added to PSCEN)


 Free energy of the ion-electron system (eV)
  ---------------------------------------------------
  alpha Z        PSCENC =        41.93302019
  Ewald energy   TEWEN  =      5929.68701242
  -Hartree energ DENC   =     -8117.30984524
  -exchange      EXHF   =         0.00000000
  -V(xc)+E(xc)   XCENC  =        37.14388846
  PAW double counting   =      2012.60260865    -1949.97488812
  entropy T*S    EENTRO =        -0.00601591
  eigenvalues    EBANDS =      -185.14367686
  atomic energy  EATOM  =      2236.38650011
  Solvation  Ediel_sol  =         0.00000000
  ---------------------------------------------------
  free energy    TOTEN  =         5.31860369 eV

  energy without entropy =        5.32461960  energy(sigma->0) =        5.32161165


--------------------------------------------------------------------------------------------------------




--------------------------------------- Iteration      1(   3)  ---------------------------------------


     EDDAV:  cpu time    4.4458: real time    4.4461
       DOS:  cpu time    0.0007: real time    0.0007
    --------------------------------------------
      LOOP:  cpu time    4.4465: real time    4.4468

 eigenvalue-minimisations  :  3426
 total energy-change (2. order) :-0.2226502E+02  (-0.2178831E+02)
 number of electron      34.0000000 magnetization 
 augmentation part       34.0000000 magnetization 

 DIPCOR: dipole corrections for dipol
 direction  3 min pos   213,
 dipolmoment           0.000000      0.000000     -0.000023 electrons x Angstroem
 Tr[quadrupol]       -80.183186

 energy correction for charged system         0.000000 eV
 dipol+quadrupol energy correction           -0.000000 eV
 added-field ion interaction          0.000215 eV  (added to PSCEN)


 Free energy of the ion-electron system (eV)
  ---------------------------------------------------
  alpha Z        PSCENC =        41.93302019
  Ewald energy   TEWEN  =      5929.68701242
  -Hartree energ DENC   =     -8117.30984524
  -exchange      EXHF   =         0.00000000
  -V(xc)+E(xc)   XCENC  =        37.14388846
  PAW double counting   =      2012.60260865    -1949.97488812
  entropy T*S    EENTRO =        -0.00000000
  eigenvalues    EBANDS =      -207.41471049
  atomic energy  EATOM  =      2236.38650011
  Solvation  Ediel_sol  =         0.00000000
  ---------------------------------------------------
  free energy    TOTEN  =       -16.94641402 eV

  energy without entropy =      -16.94641402  energy(sigma->0) =      -16.94641402


--------------------------------------------------------------------------------------------------------




--------------------------------------- Iteration      1(   4)  ---------------------------------------


     EDDAV:  cpu time    4.5569: real time    4.5572
       DOS:  cpu time    0.0006: real time    0.0006
    --------------------------------------------
      LOOP:  cpu time    4.5575: real time    4.5578

 eigenvalue-minimisations  :  3434
 total energy-change (2. order) :-0.5165253E+00  (-0.5143977E+00)
 number of electron      34.0000000 magnetization 
 augmentation part       34.0000000 magnetization 

 DIPCOR: dipole corrections for dipol
 direction  3 min pos   213,
 dipolmoment           0.000000      0.000000     -0.000023 electrons x Angstroem
 Tr[quadrupol]       -80.183186

 energy correction for charged system         0.000000 eV
 dipol+quadrupol energy correction           -0.000000 eV
 added-field ion interaction          0.000215 eV  (added to PSCEN)


 Free energy of the ion-electron system (eV)
  ---------------------------------------------------
  alpha Z        PSCENC =        41.93302019
  Ewald energy   TEWEN  =      5929.68701242
  -Hartree energ DENC   =     -8117.30984524
  -exchange      EXHF   =         0.00000000
  -V(xc)+E(xc)   XCENC  =        37.14388846
  PAW double counting   =      2012.60260865    -1949.97488812
  entropy T*S    EENTRO =        -0.00000000
  eigenvalues    EBANDS =      -207.93123575
  atomic energy  EATOM  =      2236.38650011
  Solvation  Ediel_sol  =         0.00000000
  ---------------------------------------------------
  free energy    TOTEN  =       -17.46293929 eV

  energy without entropy =      -17.46293929  energy(sigma->0) =      -17.46293929


--------------------------------------------------------------------------------------------------------




--------------------------------------- Iteration      1(   5)  ---------------------------------------


     EDDAV:  cpu time    4.4399: real time    4.4402
       DOS:  cpu time    0.0007: real time    0.0007
    CHARGE:  cpu time    0.3618: real time    0.3618
    MIXING:  cpu time    0.0107: real time    0.0107
    --------------------------------------------
      LOOP:  cpu time    4.8132: real time    4.8135

 eigenvalue-minimisations  :  3480
 total energy-change (2. order) :-0.1385779E-01  (-0.1385427E-01)
 number of electron      34.0000003 magnetization 
 augmentation part        3.4212530 magnetization 

 DIPCOR: dipole corrections for dipol
 direction  3 min pos   213,
 dipolmoment           0.000000      0.000000     -0.000023 electrons x Angstroem
 Tr[quadrupol]       -80.183186

 energy correction for charged system         0.000000 eV
 dipol+quadrupol energy correction           -0.000000 eV
 added-field ion interaction          0.000215 eV  (added to PSCEN)


 Broyden mixing:
  rms(total) = 0.15815E+01    rms(broyden)= 0.15814E+01
  rms(prec ) = 0.16058E+01
  weight for this iteration     100.00

 Free energy of the ion-electron system (eV)
  ---------------------------------------------------
  alpha Z        PSCENC =        41.93302019
  Ewald energy   TEWEN  =      5929.68701242
  -Hartree energ DENC   =     -8117.30984524
  -exchange      EXHF   =         0.00000000
  -V(xc)+E(xc)   XCENC  =        37.14388846
  PAW double counting   =      2012.60260865    -1949.97488812
  entropy T*S    EENTRO =        -0.00000000
  eigenvalues    EBANDS =      -207.94509355
  atomic energy  EATOM  =      2236.38650011
  Solvation  Ediel_sol  =         0.00000000
  ---------------------------------------------------
  free energy    TOTEN  =       -17.47679708 eV

  energy without entropy =      -17.47679708  energy(sigma->0) =      -17.47679708


--------------------------------------------------------------------------------------------------------




--------------------------------------- Iteration      1(   6)  ---------------------------------------


    POTLOK:  cpu time    0.3124: real time    0.3124
    SETDIJ:  cpu time    0.0143: real time    0.0143
     EDDAV:  cpu time    4.6838: real time    4.6840
       DOS:  cpu time    0.0007: real time    0.0007
    CHARGE:  cpu time    0.3570: real time    0.3570
    MIXING:  cpu time    0.0132: real time    0.0132
    --------------------------------------------
      LOOP:  cpu time    5.3813: real time    5.3816

 eigenvalue-minimisations  :  3494
 total energy-change (2. order) : 0.8646901E+00  (-0.2391897E+00)
 number of electron      34.0000003 magnetization 
 augmentation part        3.8455789 magnetization 

 DIPCOR: dipole corrections for dipol
 direction  3 min pos   215,
 dipolmoment           0.000000      0.000000     -0.034080 electrons x Angstroem
 Tr[quadrupol]       -80.139720

 energy correction for charged system         0.000000 eV
 dipol+quadrupol energy correction           -0.000454 eV
 added-field ion interaction          0.188631 eV  (added to PSCEN)


 Broyden mixing:
  rms(total) = 0.88279E+00    rms(broyden)= 0.88278E+00
  rms(prec ) = 0.88739E+00
  weight for this iteration     100.00

 eigenvalues of (default mixing * dielectric matrix)
  average eigenvalue GAMMA=   1.8500
  1.8500

 Free energy of the ion-electron system (eV)
  ---------------------------------------------------
  alpha Z        PSCENC =        42.12098286
  Ewald energy   TEWEN  =      5929.68701242
  -Hartree energ DENC   =     -8101.67776510
  -exchange      EXHF   =         0.00000000
  -V(xc)+E(xc)   XCENC  =        36.84364745
  PAW double counting   =      2279.86301321    -2220.32165529
  entropy T*S    EENTRO =        -0.00000000
  eigenvalues    EBANDS =      -219.51384269
  atomic energy  EATOM  =      2236.38650011
  Solvation  Ediel_sol  =         0.00000000
  ---------------------------------------------------
  free energy    TOTEN  =       -16.61210703 eV

  energy without entropy =      -16.61210703  energy(sigma->0) =      -16.61210703


--------------------------------------------------------------------------------------------------------




--------------------------------------- Iteration      1(   7)  ---------------------------------------


    POTLOK:  cpu time    0.2899: real time    0.2899
    SETDIJ:  cpu time    0.0077: real time    0.0077
     EDDAV:  cpu time    4.5151: real time    4.5154
       DOS:  cpu time    0.0007: real time    0.0007
    CHARGE:  cpu time    0.3629: real time    0.3629
    MIXING:  cpu time    0.0099: real time    0.0099
    --------------------------------------------
      LOOP:  cpu time    5.1862: real time    5.1865

 eigenvalue-minimisations  :  3296
 total energy-change (2. order) : 0.7944246E-02  (-0.5643622E-01)
 number of electron      34.0000003 magnetization 
 augmentation part        3.8164874 magnetization 

 DIPCOR: dipole corrections for dipol
 direction  3 min pos   226,
 dipolmoment           0.000000      0.000000     -0.016042 electrons x Angstroem
 Tr[quadrupol]       -80.348975

 energy correction for charged system         0.000000 eV
 dipol+quadrupol energy correction           -0.000101 eV
 added-field ion interaction         -0.246221 eV  (added to PSCEN)


 Broyden mixing:
  rms(total) = 0.30748E+00    rms(broyden)= 0.30747E+00
  rms(prec ) = 0.32586E+00
  weight for this iteration     100.00

 eigenvalues of (default mixing * dielectric matrix)
  average eigenvalue GAMMA=   1.5643
  0.8393  2.2893

 Free energy of the ion-electron system (eV)
  ---------------------------------------------------
  alpha Z        PSCENC =        41.68648411
  Ewald energy   TEWEN  =      5929.68701242
  -Hartree energ DENC   =     -8106.30725314
  -exchange      EXHF   =         0.00000000
  -V(xc)+E(xc)   XCENC  =        36.76156327
  PAW double counting   =      2596.40550127    -2538.98717416
  entropy T*S    EENTRO =        -0.00000000
  eigenvalues    EBANDS =      -212.23679666
  atomic energy  EATOM  =      2236.38650011
  Solvation  Ediel_sol  =         0.00000000
  ---------------------------------------------------
  free energy    TOTEN  =       -16.60416278 eV

  energy without entropy =      -16.60416278  energy(sigma->0) =      -16.60416278


--------------------------------------------------------------------------------------------------------




--------------------------------------- Iteration      1(   8)  ---------------------------------------


    POTLOK:  cpu time    0.2881: real time    0.2882
    SETDIJ:  cpu time    0.0075: real time    0.0075
     EDDAV:  cpu time    4.5760: real time    4.5763
       DOS:  cpu time    0.0005: real time    0.0005
    CHARGE:  cpu time    0.3171: real time    0.3171
    MIXING:  cpu time    0.0100: real time    0.0100
    --------------------------------------------
      LOOP:  cpu time    5.1993: real time    5.1996

 eigenvalue-minimisations  :  3524
 total energy-change (2. order) :-0.4671792E-01  (-0.4068981E-01)
 number of electron      34.0000003 magnetization 
 augmentation part        3.8273103 magnetization 

 DIPCOR: dipole corrections for dipol
 direction  3 min pos   227,
 dipolmoment           0.000000      0.000000     -0.071055 electrons x Angstroem
 Tr[quadrupol]       -80.290385

 energy correction for charged system         0.000000 eV
 dipol+quadrupol energy correction           -0.001973 eV
 added-field ion interaction         -1.225494 eV  (added to PSCEN)


 Broyden mixing:
  rms(total) = 0.24035E+00    rms(broyden)= 0.24034E+00
  rms(prec ) = 0.28862E+00
  weight for this iteration     100.00

 eigenvalues of (default mixing * dielectric matrix)
  average eigenvalue GAMMA=   1.2631
  2.4195  0.9544  0.4155

 Free energy of the ion-electron system (eV)
  ---------------------------------------------------
  alpha Z        PSCENC =        40.70533839
  Ewald energy   TEWEN  =      5929.68701242
  -Hartree energ DENC   =     -8105.55689273
  -exchange      EXHF   =         0.00000000
  -V(xc)+E(xc)   XCENC  =        36.77772193
  PAW double counting   =      2711.97543899    -2655.22940929
  entropy T*S    EENTRO =        -0.00000000
  eigenvalues    EBANDS =      -211.39659052
  atomic energy  EATOM  =      2236.38650011
  Solvation  Ediel_sol  =         0.00000000
  ---------------------------------------------------
  free energy    TOTEN  =       -16.65088070 eV

  energy without entropy =      -16.65088070  energy(sigma->0) =      -16.65088070


--------------------------------------------------------------------------------------------------------




--------------------------------------- Iteration      1(   9)  ---------------------------------------


    POTLOK:  cpu time    0.3129: real time    0.3130
    SETDIJ:  cpu time    0.0097: real time    0.0097
     EDDAV:  cpu time    4.6075: real time    4.6077
       DOS:  cpu time    0.0007: real time    0.0007
    CHARGE:  cpu time    0.3341: real time    0.3341
    MIXING:  cpu time    0.0090: real time    0.0090
    --------------------------------------------
      LOOP:  cpu time    5.2738: real time    5.2742

 eigenvalue-minimisations  :  3428
 total energy-change (2. order) : 0.9215805E-01  (-0.1550093E-01)
 number of electron      34.0000003 magnetization 
 augmentation part        3.8517864 magnetization 

 DIPCOR: dipole corrections for dipol
 direction  3 min pos   214,
 dipolmoment           0.000000      0.000000     -0.024455 electrons x Angstroem
 Tr[quadrupol]       -80.371020

 energy correction for charged system         0.000000 eV
 dipol+quadrupol energy correction           -0.000234 eV
 added-field ion interaction          0.181789 eV  (added to PSCEN)


 Broyden mixing:
  rms(total) = 0.43773E-01    rms(broyden)= 0.43751E-01
  rms(prec ) = 0.48507E-01
  weight for this iteration     100.00

 eigenvalues of (default mixing * dielectric matrix)
  average eigenvalue GAMMA=   1.2860
  2.5038  1.3638  0.8823  0.3940

 Free energy of the ion-electron system (eV)
  ---------------------------------------------------
  alpha Z        PSCENC =        42.11436035
  Ewald energy   TEWEN  =      5929.68701242
  -Hartree energ DENC   =     -8104.67269592
  -exchange      EXHF   =         0.00000000
  -V(xc)+E(xc)   XCENC  =        36.78707797
  PAW double counting   =      2736.59204047    -2679.96352278
  entropy T*S    EENTRO =        -0.00000000
  eigenvalues    EBANDS =      -213.48949526
  atomic energy  EATOM  =      2236.38650011
  Solvation  Ediel_sol  =         0.00000000
  ---------------------------------------------------
  free energy    TOTEN  =       -16.55872265 eV

  energy without entropy =      -16.55872265  energy(sigma->0) =      -16.55872265


--------------------------------------------------------------------------------------------------------




--------------------------------------- Iteration      1(  10)  ---------------------------------------


    POTLOK:  cpu time    0.2943: real time    0.2943
    SETDIJ:  cpu time    0.0075: real time    0.0075
     EDDAV:  cpu time    4.3508: real time    4.3512
       DOS:  cpu time    0.0007: real time    0.0007
    CHARGE:  cpu time    0.3715: real time    0.3716
    MIXING:  cpu time    0.0113: real time    0.0113
    --------------------------------------------
      LOOP:  cpu time    5.0361: real time    5.0366

 eigenvalue-minimisations  :  3256
 total energy-change (2. order) : 0.2050211E-02  (-0.2281922E-02)
 number of electron      34.0000003 magnetization 
 augmentation part        3.8486268 magnetization 

 DIPCOR: dipole corrections for dipol
 direction  3 min pos   223,
 dipolmoment           0.000000      0.000000     -0.039536 electrons x Angstroem
 Tr[quadrupol]       -80.324782

 energy correction for charged system         0.000000 eV
 dipol+quadrupol energy correction           -0.000611 eV
 added-field ion interaction         -0.381643 eV  (added to PSCEN)


 Broyden mixing:
  rms(total) = 0.20987E-01    rms(broyden)= 0.20986E-01
  rms(prec ) = 0.25064E-01
  weight for this iteration     100.00

 eigenvalues of (default mixing * dielectric matrix)
  average eigenvalue GAMMA=   1.2302
  2.4774  1.5331  0.8816  0.8816  0.3775

 Free energy of the ion-electron system (eV)
  ---------------------------------------------------
  alpha Z        PSCENC =        41.55055171
  Ewald energy   TEWEN  =      5929.68701242
  -Hartree energ DENC   =     -8104.97707838
  -exchange      EXHF   =         0.00000000
  -V(xc)+E(xc)   XCENC  =        36.82259532
  PAW double counting   =      2746.55393112    -2689.90064472
  entropy T*S    EENTRO =        -0.00000000
  eigenvalues    EBANDS =      -212.67954001
  atomic energy  EATOM  =      2236.38650011
  Solvation  Ediel_sol  =         0.00000000
  ---------------------------------------------------
  free energy    TOTEN  =       -16.55667244 eV

  energy without entropy =      -16.55667244  energy(sigma->0) =      -16.55667244


--------------------------------------------------------------------------------------------------------




--------------------------------------- Iteration      1(  11)  ---------------------------------------


    POTLOK:  cpu time    0.3155: real time    0.3156
    SETDIJ:  cpu time    0.0091: real time    0.0091
     EDDAV:  cpu time    4.5795: real time    4.5799
       DOS:  cpu time    0.0007: real time    0.0007
    CHARGE:  cpu time    0.3623: real time    0.3624
    MIXING:  cpu time    0.0093: real time    0.0093
    --------------------------------------------
      LOOP:  cpu time    5.2765: real time    5.2769

 eigenvalue-minimisations  :  3302
 total energy-change (2. order) : 0.3616860E-03  (-0.3631491E-03)
 number of electron      34.0000003 magnetization 
 augmentation part        3.8460511 magnetization 

 DIPCOR: dipole corrections for dipol
 direction  3 min pos   228,
 dipolmoment           0.000000      0.000000     -0.037958 electrons x Angstroem
 Tr[quadrupol]       -80.306732

 energy correction for charged system         0.000000 eV
 dipol+quadrupol energy correction           -0.000563 eV
 added-field ion interaction         -0.726722 eV  (added to PSCEN)


 Broyden mixing:
  rms(total) = 0.87256E-02    rms(broyden)= 0.87245E-02
  rms(prec ) = 0.92479E-02
  weight for this iteration     100.00

 eigenvalues of (default mixing * dielectric matrix)
  average eigenvalue GAMMA=   1.1650
  2.4605  1.7372  0.3784  0.9099  0.8039  0.6998

 Free energy of the ion-electron system (eV)
  ---------------------------------------------------
  alpha Z        PSCENC =        41.20552026
  Ewald energy   TEWEN  =      5929.68701242
  -Hartree energ DENC   =     -8105.29530259
  -exchange      EXHF   =         0.00000000
  -V(xc)+E(xc)   XCENC  =        36.83131121
  PAW double counting   =      2744.99334227    -2688.31755300
  entropy T*S    EENTRO =        -0.00000000
  eigenvalues    EBANDS =      -212.04714143
  atomic energy  EATOM  =      2236.38650011
  Solvation  Ediel_sol  =         0.00000000
  ---------------------------------------------------
  free energy    TOTEN  =       -16.55631076 eV

  energy without entropy =      -16.55631076  energy(sigma->0) =      -16.55631076


--------------------------------------------------------------------------------------------------------




--------------------------------------- Iteration      1(  12)  ---------------------------------------


    POTLOK:  cpu time    0.2895: real time    0.2895
    SETDIJ:  cpu time    0.0069: real time    0.0069
     EDDAV:  cpu time    5.2846: real time    5.2850
       DOS:  cpu time    0.0007: real time    0.0007
    CHARGE:  cpu time    0.4070: real time    0.4071
    MIXING:  cpu time    0.0117: real time    0.0117
    --------------------------------------------
      LOOP:  cpu time    6.0005: real time    6.0009

 eigenvalue-minimisations  :  4006
 total energy-change (2. order) :-0.8338552E-05  (-0.4221303E-04)
 number of electron      34.0000003 magnetization 
 augmentation part        3.8452232 magnetization 

 DIPCOR: dipole corrections for dipol
 direction  3 min pos   230,
 dipolmoment           0.000000      0.000000     -0.037928 electrons x Angstroem
 Tr[quadrupol]       -80.300143

 energy correction for charged system         0.000000 eV
 dipol+quadrupol energy correction           -0.000562 eV
 added-field ion interaction         -0.870166 eV  (added to PSCEN)


 Broyden mixing:
  rms(total) = 0.54231E-02    rms(broyden)= 0.54228E-02
  rms(prec ) = 0.58161E-02
  weight for this iteration     100.00

 eigenvalues of (default mixing * dielectric matrix)
  average eigenvalue GAMMA=   1.2218
  2.3851  1.9273  1.4074  0.9363  0.9363  0.3782  0.5817

 Free energy of the ion-electron system (eV)
  ---------------------------------------------------
  alpha Z        PSCENC =        41.06207679
  Ewald energy   TEWEN  =      5929.68701242
  -Hartree energ DENC   =     -8105.44963087
  -exchange      EXHF   =         0.00000000
  -V(xc)+E(xc)   XCENC  =        36.83367484
  PAW double counting   =      2743.84548367    -2687.16420129
  entropy T*S    EENTRO =        -0.00000000
  eigenvalues    EBANDS =      -211.75723476
  atomic energy  EATOM  =      2236.38650011
  Solvation  Ediel_sol  =         0.00000000
  ---------------------------------------------------
  free energy    TOTEN  =       -16.55631910 eV

  energy without entropy =      -16.55631910  energy(sigma->0) =      -16.55631910


--------------------------------------------------------------------------------------------------------




--------------------------------------- Iteration      1(  13)  ---------------------------------------


    POTLOK:  cpu time    0.3167: real time    0.3167
    SETDIJ:  cpu time    0.0092: real time    0.0092
     EDDAV:  cpu time    4.5693: real time    4.5696
       DOS:  cpu time    0.0007: real time    0.0007
    CHARGE:  cpu time    0.3211: real time    0.3211
    MIXING:  cpu time    0.0097: real time    0.0097
    --------------------------------------------
      LOOP:  cpu time    5.2267: real time    5.2269

 eigenvalue-minimisations  :  3320
 total energy-change (2. order) :-0.1054957E-04  (-0.1599483E-04)
 number of electron      34.0000003 magnetization 
 augmentation part        3.8453068 magnetization 

 DIPCOR: dipole corrections for dipol
 direction  3 min pos   231,
 dipolmoment           0.000000      0.000000     -0.037401 electrons x Angstroem
 Tr[quadrupol]       -80.303927

 energy correction for charged system         0.000000 eV
 dipol+quadrupol energy correction           -0.000547 eV
 added-field ion interaction         -0.929084 eV  (added to PSCEN)


 Broyden mixing:
  rms(total) = 0.22095E-02    rms(broyden)= 0.22094E-02
  rms(prec ) = 0.24952E-02
  weight for this iteration     100.00

 eigenvalues of (default mixing * dielectric matrix)
  average eigenvalue GAMMA=   1.2856
  2.5496  2.5496  1.1400  1.1400  0.3784  1.0310  0.8770  0.6191

 Free energy of the ion-electron system (eV)
  ---------------------------------------------------
  alpha Z        PSCENC =        41.00317511
  Ewald energy   TEWEN  =      5929.68701242
  -Hartree energ DENC   =     -8105.74815482
  -exchange      EXHF   =         0.00000000
  -V(xc)+E(xc)   XCENC  =        36.83622098
  PAW double counting   =      2739.79530949    -2683.10998283
  entropy T*S    EENTRO =        -0.00000000
  eigenvalues    EBANDS =      -211.40641011
  atomic energy  EATOM  =      2236.38650011
  Solvation  Ediel_sol  =         0.00000000
  ---------------------------------------------------
  free energy    TOTEN  =       -16.55632964 eV

  energy without entropy =      -16.55632964  energy(sigma->0) =      -16.55632964


--------------------------------------------------------------------------------------------------------




--------------------------------------- Iteration      1(  14)  ---------------------------------------


    POTLOK:  cpu time    0.2883: real time    0.2883
    SETDIJ:  cpu time    0.0070: real time    0.0070
     EDDAV:  cpu time    4.6371: real time    4.6375
       DOS:  cpu time    0.0007: real time    0.0007
    CHARGE:  cpu time    0.3608: real time    0.3608
    MIXING:  cpu time    0.0121: real time    0.0121
    --------------------------------------------
      LOOP:  cpu time    5.3060: real time    5.3065

 eigenvalue-minimisations  :  3350
 total energy-change (2. order) :-0.2532035E-04  (-0.3116595E-05)
 number of electron      34.0000003 magnetization 
 augmentation part        3.8453293 magnetization 

 DIPCOR: dipole corrections for dipol
 direction  3 min pos   232,
 dipolmoment           0.000000      0.000000     -0.037175 electrons x Angstroem
 Tr[quadrupol]       -80.302731

 energy correction for charged system         0.000000 eV
 dipol+quadrupol energy correction           -0.000540 eV
 added-field ion interaction         -0.994035 eV  (added to PSCEN)


 Broyden mixing:
  rms(total) = 0.19325E-02    rms(broyden)= 0.19325E-02
  rms(prec ) = 0.21022E-02
  weight for this iteration     100.00

 eigenvalues of (default mixing * dielectric matrix)
  average eigenvalue GAMMA=   1.2015
  2.4097  2.4097  0.3785  1.2081  1.2081  0.9515  0.9515  0.7562  0.5401

 Free energy of the ion-electron system (eV)
  ---------------------------------------------------
  alpha Z        PSCENC =        40.93823021
  Ewald energy   TEWEN  =      5929.68701242
  -Hartree energ DENC   =     -8105.92236270
  -exchange      EXHF   =         0.00000000
  -V(xc)+E(xc)   XCENC  =        36.83979988
  PAW double counting   =      2738.61378782    -2681.92521316
  entropy T*S    EENTRO =        -0.00000000
  eigenvalues    EBANDS =      -211.17410954
  atomic energy  EATOM  =      2236.38650011
  Solvation  Ediel_sol  =         0.00000000
  ---------------------------------------------------
  free energy    TOTEN  =       -16.55635497 eV

  energy without entropy =      -16.55635497  energy(sigma->0) =      -16.55635497


--------------------------------------------------------------------------------------------------------




--------------------------------------- Iteration      1(  15)  ---------------------------------------


    POTLOK:  cpu time    0.3139: real time    0.3140
    SETDIJ:  cpu time    0.0092: real time    0.0092
     EDDAV:  cpu time    4.4247: real time    4.4249
       DOS:  cpu time    0.0006: real time    0.0006
    CHARGE:  cpu time    0.3476: real time    0.3476
    MIXING:  cpu time    0.0125: real time    0.0125
    --------------------------------------------
      LOOP:  cpu time    5.1085: real time    5.1089

 eigenvalue-minimisations  :  3362
 total energy-change (2. order) :-0.8665224E-05  (-0.2327227E-06)
 number of electron      34.0000003 magnetization 
 augmentation part        3.8455031 magnetization 

 DIPCOR: dipole corrections for dipol
 direction  3 min pos   232,
 dipolmoment           0.000000      0.000000     -0.037079 electrons x Angstroem
 Tr[quadrupol]       -80.303757

 energy correction for charged system         0.000000 eV
 dipol+quadrupol energy correction           -0.000537 eV
 added-field ion interaction         -0.991476 eV  (added to PSCEN)


 Broyden mixing:
  rms(total) = 0.12392E-02    rms(broyden)= 0.12392E-02
  rms(prec ) = 0.14264E-02
  weight for this iteration     100.00

 eigenvalues of (default mixing * dielectric matrix)
  average eigenvalue GAMMA=   1.3014
  2.6092  2.2760  1.6774  1.6774  1.0406  1.0406  0.3785  0.8525  0.8525  0.6096

 Free energy of the ion-electron system (eV)
  ---------------------------------------------------
  alpha Z        PSCENC =        40.94079199
  Ewald energy   TEWEN  =      5929.68701242
  -Hartree energ DENC   =     -8105.95237227
  -exchange      EXHF   =         0.00000000
  -V(xc)+E(xc)   XCENC  =        36.83980454
  PAW double counting   =      2739.01768817    -2682.33164173
  entropy T*S    EENTRO =        -0.00000000
  eigenvalues    EBANDS =      -211.14414686
  atomic energy  EATOM  =      2236.38650011
  Solvation  Ediel_sol  =         0.00000000
  ---------------------------------------------------
  free energy    TOTEN  =       -16.55636363 eV

  energy without entropy =      -16.55636363  energy(sigma->0) =      -16.55636363


--------------------------------------------------------------------------------------------------------




--------------------------------------- Iteration      1(  16)  ---------------------------------------


    POTLOK:  cpu time    0.3166: real time    0.3167
    SETDIJ:  cpu time    0.0091: real time    0.0091
     EDDAV:  cpu time    4.4366: real time    4.4369
       DOS:  cpu time    0.0007: real time    0.0007
    CHARGE:  cpu time    0.3649: real time    0.3649
    MIXING:  cpu time    0.0124: real time    0.0124
    --------------------------------------------
      LOOP:  cpu time    5.1403: real time    5.1407

 eigenvalue-minimisations  :  3194
 total energy-change (2. order) :-0.3450163E-04  (-0.4825459E-06)
 number of electron      34.0000003 magnetization 
 augmentation part        3.8454424 magnetization 

 DIPCOR: dipole corrections for dipol
 direction  3 min pos   232,
 dipolmoment           0.000000      0.000000     -0.036607 electrons x Angstroem
 Tr[quadrupol]       -80.308616

 energy correction for charged system         0.000000 eV
 dipol+quadrupol energy correction           -0.000524 eV
 added-field ion interaction         -0.978871 eV  (added to PSCEN)


 Broyden mixing:
  rms(total) = 0.32505E-03    rms(broyden)= 0.32503E-03
  rms(prec ) = 0.52882E-03
  weight for this iteration     100.00

 eigenvalues of (default mixing * dielectric matrix)
  average eigenvalue GAMMA=   1.3678
  2.6319  2.6319  2.3231  1.5099  1.1808  1.0530  1.0530  0.3785  0.8403  0.8403
  0.6028

 Free energy of the ion-electron system (eV)
  ---------------------------------------------------
  alpha Z        PSCENC =        40.95341058
  Ewald energy   TEWEN  =      5929.68701242
  -Hartree energ DENC   =     -8106.13014912
  -exchange      EXHF   =         0.00000000
  -V(xc)+E(xc)   XCENC  =        36.84123570
  PAW double counting   =      2738.77441553    -2682.08851811
  entropy T*S    EENTRO =        -0.00000000
  eigenvalues    EBANDS =      -210.98030523
  atomic energy  EATOM  =      2236.38650011
  Solvation  Ediel_sol  =         0.00000000
  ---------------------------------------------------
  free energy    TOTEN  =       -16.55639813 eV

  energy without entropy =      -16.55639813  energy(sigma->0) =      -16.55639813


--------------------------------------------------------------------------------------------------------




--------------------------------------- Iteration      1(  17)  ---------------------------------------


    POTLOK:  cpu time    0.3142: real time    0.3142
    SETDIJ:  cpu time    0.0092: real time    0.0092
     EDDAV:  cpu time    4.4131: real time    4.4134
       DOS:  cpu time    0.0006: real time    0.0006
    CHARGE:  cpu time    0.3573: real time    0.3573
    MIXING:  cpu time    0.0126: real time    0.0126
    --------------------------------------------
      LOOP:  cpu time    5.1070: real time    5.1073

 eigenvalue-minimisations  :  3380
 total energy-change (2. order) :-0.2680225E-04  (-0.3058145E-06)
 number of electron      34.0000003 magnetization 
 augmentation part        3.8455074 magnetization 

 DIPCOR: dipole corrections for dipol
 direction  3 min pos   232,
 dipolmoment           0.000000      0.000000     -0.036333 electrons x Angstroem
 Tr[quadrupol]       -80.312387

 energy correction for charged system         0.000000 eV
 dipol+quadrupol energy correction           -0.000516 eV
[...]
  band No.  band energies     occupation 
      1     -17.4331      2.00000
      2     -17.3168      2.00000
      3      -7.8035      2.00000
      4      -7.1273      2.00000
      5      -6.8428      2.00000
      6      -6.6753      2.00000
      7      -6.3408      2.00000
      8      -5.6114      2.00000
      9      -5.1912      2.00000
     10      -4.8016      2.00000
     11      -4.4955      2.00000
     12      -3.1574      2.00000
     13      -3.0079      2.00000
     14      -2.9914      2.00000
     15      -2.3372      2.00000
     16      -2.3347      2.00000
     17      -2.0329      2.00000
     18      -0.2741      0.00000
     19       0.2122      0.00000
     20       3.5227      0.00000
     21       3.9437      0.00000
     22       4.4782      0.00000

 k-point    52 :       0.3750   -0.2500    0.0000
  band No.  band energies     occupation 
      1     -17.3245      2.00000
      2     -17.1881      2.00000
      3      -7.7508      2.00000
      4      -7.2268      2.00000
      5      -6.7232      2.00000
      6      -6.5596      2.00000
      7      -6.3673      2.00000
      8      -5.8099      2.00000
      9      -5.2574      2.00000
     10      -5.0077      2.00000
     11      -4.1079      2.00000
     12      -3.6772      2.00000
     13      -3.0692      2.00000
     14      -2.7901      2.00000
     15      -2.5417      2.00000
     16      -2.4597      2.00000
     17      -2.2033      2.00000
     18      -0.4239      0.00000
     19       0.8547      0.00000
     20       3.3201      0.00000
     21       4.4858      0.00000
     22       4.9088      0.00000

 k-point    53 :       0.5000   -0.2500    0.0000
  band No.  band energies     occupation 
      1     -17.2202      2.00000
      2     -17.0481      2.00000
      3      -7.5964      2.00000
      4      -7.1340      2.00000
      5      -7.0821      2.00000
      6      -6.3812      2.00000
      7      -6.2611      2.00000
      8      -5.9203      2.00000
      9      -5.4187      2.00000
     10      -5.2038      2.00000
     11      -3.8718      2.00000
     12      -3.5096      2.00000
     13      -3.2940      2.00000
     14      -3.0863      2.00000
     15      -3.0183      2.00000
     16      -2.4329      2.00000
     17      -2.0963      2.00000
     18      -0.3541      0.00000
     19       1.2418      0.00000
     20       2.9813      0.00000
     21       4.5353      0.00000
     22       5.5088      0.00000

 k-point    54 :      -0.3750   -0.2500    0.0000
  band No.  band energies     occupation 
      1     -17.1773      2.00000
      2     -16.9876      2.00000
      3      -7.3411      2.00000
      4      -7.3340      2.00000
      5      -6.9342      2.00000
      6      -6.6771      2.00000
      7      -6.4529      2.00000
      8      -5.7309      2.00000
      9      -5.4141      2.00000
     10      -4.8456      2.00000
     11      -4.3127      2.00000
     12      -3.7420      2.00000
     13      -3.4327      2.00000
     14      -3.0809      2.00000
     15      -2.7173      2.00000
     16      -2.4182      2.00000
     17      -2.1587      2.00000
     18      -0.2097      0.00000
     19       1.4119      0.00000
     20       2.3431      0.00000
     21       5.0740      0.00000
     22       5.4593      0.00000

 k-point    55 :      -0.2500   -0.2500    0.0000
  band No.  band energies     occupation 
      1     -17.2202      2.00000
      2     -17.0481      2.00000
      3      -7.5964      2.00000
      4      -7.1340      2.00000
      5      -7.0821      2.00000
      6      -6.3812      2.00000
      7      -6.2611      2.00000
      8      -5.9203      2.00000
      9      -5.4187      2.00000
     10      -5.2038      2.00000
     11      -3.8718      2.00000
     12      -3.5096      2.00000
     13      -3.2940      2.00000
     14      -3.0864      2.00000
     15      -3.0183      2.00000
     16      -2.4329      2.00000
     17      -2.0963      2.00000
     18      -0.3541      0.00000
     19       1.2418      0.00000
     20       2.9813      0.00000
     21       4.5353      0.00000
     22       5.5088      0.00000

 k-point    56 :      -0.1250   -0.2500    0.0000
  band No.  band energies     occupation 
      1     -17.3245      2.00000
      2     -17.1881      2.00000
      3      -7.7508      2.00000
      4      -7.2268      2.00000
      5      -6.7232      2.00000
      6      -6.5596      2.00000
      7      -6.3673      2.00000
      8      -5.8099      2.00000
      9      -5.2574      2.00000
     10      -5.0077      2.00000
     11      -4.1079      2.00000
     12      -3.6772      2.00000
     13      -3.0692      2.00000
     14      -2.7901      2.00000
     15      -2.5417      2.00000
     16      -2.4597      2.00000
     17      -2.2033      2.00000
     18      -0.4239      0.00000
     19       0.8547      0.00000
     20       3.3201      0.00000
     21       4.4858      0.00000
     22       4.9088      0.00000

 k-point    57 :      -0.0000   -0.1250    0.0000
  band No.  band energies     occupation 
      1     -17.6001      2.00000
      2     -17.4721      2.00000
      3      -8.0134      2.00000
      4      -7.0535      2.00000
      5      -6.9426      2.00000
      6      -6.6819      2.00000
      7      -6.2314      2.00000
      8      -5.7914      2.00000
      9      -4.8498      2.00000
     10      -4.7524      2.00000
     11      -4.0198      2.00000
     12      -3.0501      2.00000
     13      -2.6966      2.00000
     14      -2.4878      2.00000
     15      -2.4626      2.00000
     16      -2.4043      2.00000
     17      -2.0973      2.00000
     18      -0.3780      0.00000
     19      -0.2880      0.00000
     20       2.7364      0.00000
     21       3.5098      0.00000
     22       4.0998      0.00000

 k-point    58 :       0.1250   -0.1250    0.0000
  band No.  band energies     occupation 
      1     -17.6001      2.00000
      2     -17.4721      2.00000
      3      -8.0134      2.00000
      4      -7.0535      2.00000
      5      -6.9426      2.00000
      6      -6.6819      2.00000
      7      -6.2314      2.00000
      8      -5.7914      2.00000
      9      -4.8498      2.00000
     10      -4.7524      2.00000
     11      -4.0198      2.00000
     12      -3.0501      2.00000
     13      -2.6966      2.00000
     14      -2.4878      2.00000
     15      -2.4626      2.00000
     16      -2.4043      2.00000
     17      -2.0973      2.00000
     18      -0.3780      0.00000
     19      -0.2880      0.00000
     20       2.7364      0.00000
     21       3.5098      0.00000
     22       4.0998      0.00000

 k-point    59 :       0.2500   -0.1250    0.0000
  band No.  band energies     occupation 
      1     -17.4805      2.00000
      2     -17.3657      2.00000
      3      -7.8220      2.00000
      4      -7.1054      2.00000
      5      -6.9483      2.00000
      6      -6.4744      2.00000
      7      -6.3623      2.00000
      8      -5.7929      2.00000
      9      -5.0483      2.00000
     10      -4.9474      2.00000
     11      -4.3689      2.00000
     12      -3.1456      2.00000
     13      -2.8706      2.00000
     14      -2.5913      2.00000
     15      -2.4846      2.00000
     16      -2.4014      2.00000
     17      -2.0551      2.00000
     18      -0.3817      0.00000
     19       0.0681      0.00000
     20       3.5855      0.00000
     21       3.9607      0.00000
     22       4.4530      0.00000

 k-point    60 :       0.3750   -0.1250    0.0000
  band No.  band energies     occupation 
      1     -17.3245      2.00000
      2     -17.1881      2.00000
      3      -7.7508      2.00000
      4      -7.2268      2.00000
      5      -6.7232      2.00000
      6      -6.5596      2.00000
      7      -6.3673      2.00000
      8      -5.8099      2.00000
      9      -5.2574      2.00000
     10      -5.0077      2.00000
     11      -4.1079      2.00000
     12      -3.6772      2.00000
     13      -3.0692      2.00000
     14      -2.7901      2.00000
     15      -2.5417      2.00000
     16      -2.4597      2.00000
     17      -2.2033      2.00000
     18      -0.4239      0.00000
     19       0.8547      0.00000
     20       3.3201      0.00000
     21       4.4858      0.00000
     22       4.9088      0.00000

 k-point    61 :       0.5000   -0.1250    0.0000
  band No.  band energies     occupation 
      1     -17.2188      2.00000
      2     -17.0470      2.00000
      3      -7.7735      2.00000
      4      -7.4613      2.00000
      5      -6.6929      2.00000
      6      -6.4916      2.00000
      7      -6.2940      2.00000
      8      -5.9616      2.00000
      9      -5.1439      2.00000
     10      -4.7339      2.00000
     11      -3.9064      2.00000
     12      -3.4632      2.00000
     13      -3.3290      2.00000
     14      -3.0900      2.00000
     15      -2.9908      2.00000
     16      -2.5523      2.00000
     17      -2.3878      2.00000
     18      -0.3332      0.00000
     19       1.1957      0.00000
     20       2.5934      0.00000
     21       4.8471      0.00000
     22       5.1709      0.00000

 k-point    62 :      -0.3750   -0.1250    0.0000
  band No.  band energies     occupation 
      1     -17.2188      2.00000
      2     -17.0470      2.00000
      3      -7.7735      2.00000
      4      -7.4613      2.00000
      5      -6.6929      2.00000
      6      -6.4916      2.00000
      7      -6.2940      2.00000
      8      -5.9616      2.00000
      9      -5.1439      2.00000
     10      -4.7339      2.00000
     11      -3.9064      2.00000
     12      -3.4632      2.00000
     13      -3.3290      2.00000
     14      -3.0900      2.00000
     15      -2.9908      2.00000
     16      -2.5523      2.00000
     17      -2.3878      2.00000
     18      -0.3332      0.00000
     19       1.1957      0.00000
     20       2.5934      0.00000
     21       4.8471      0.00000
     22       5.1709      0.00000

 k-point    63 :      -0.2500   -0.1250    0.0000
  band No.  band energies     occupation 
      1     -17.3245      2.00000
      2     -17.1881      2.00000
      3      -7.7508      2.00000
      4      -7.2268      2.00000
      5      -6.7232      2.00000
      6      -6.5596      2.00000
      7      -6.3673      2.00000
      8      -5.8099      2.00000
      9      -5.2574      2.00000
     10      -5.0077      2.00000
     11      -4.1079      2.00000
     12      -3.6772      2.00000
     13      -3.0692      2.00000
     14      -2.7901      2.00000
     15      -2.5417      2.00000
     16      -2.4597      2.00000
     17      -2.2033      2.00000
     18      -0.4239      0.00000
     19       0.8547      0.00000
     20       3.3201      0.00000
     21       4.4858      0.00000
     22       4.9088      0.00000

 k-point    64 :      -0.1250   -0.1250    0.0000
  band No.  band energies     occupation 
      1     -17.4805      2.00000
      2     -17.3657      2.00000
      3      -7.8220      2.00000
      4      -7.1054      2.00000
      5      -6.9483      2.00000
      6      -6.4744      2.00000
      7      -6.3623      2.00000
      8      -5.7929      2.00000
      9      -5.0483      2.00000
     10      -4.9474      2.00000
     11      -4.3689      2.00000
     12      -3.1456      2.00000
     13      -2.8706      2.00000
     14      -2.5913      2.00000
     15      -2.4846      2.00000
     16      -2.4014      2.00000
     17      -2.0551      2.00000
     18      -0.3817      0.00000
     19       0.0681      0.00000
     20       3.5855      0.00000
     21       3.9607      0.00000
     22       4.4530      0.00000


--------------------------------------------------------------------------------------------------------


 soft charge-density along one line, spin component           1
         0         1         2         3         4         5         6         7         8         9
 total charge-density along one line
 
 pseudopotential strength for first ion, spin component:           1
 49.296  51.736  -0.000   0.035   0.000  -0.000   0.043   0.000
 51.736  54.300  -0.000   0.037   0.000  -0.000   0.046   0.000
 -0.000  -0.000   9.301  -0.000  -0.000  11.529  -0.000  -0.000
  0.035   0.037  -0.000   9.300   0.000  -0.000  11.527   0.000
  0.000   0.000  -0.000   0.000   9.301  -0.000   0.000  11.529
 -0.000  -0.000  11.529  -0.000  -0.000  14.307  -0.000  -0.000
  0.043   0.046  -0.000  11.527   0.000  -0.000  14.304   0.000
  0.000   0.000  -0.000   0.000  11.529  -0.000   0.000  14.307
 total augmentation occupancy for first ion, spin component:           1
  8.703  -6.674   0.000  -2.950  -0.000  -0.000   1.267   0.000
 -6.674   6.599  -0.000   2.771   0.000   0.000  -1.256  -0.000
  0.000  -0.000   3.437  -0.000   0.000  -0.985   0.000  -0.000
 -2.950   2.771  -0.000   3.192   0.000   0.000  -0.837  -0.000
 -0.000   0.000   0.000   0.000   3.437  -0.000  -0.000  -0.985
 -0.000   0.000  -0.985   0.000  -0.000   0.448  -0.000   0.000
  1.267  -1.256   0.000  -0.837  -0.000  -0.000   0.411   0.000
  0.000  -0.000  -0.000  -0.000  -0.985   0.000   0.000   0.448


------------------------ aborting loop because EDIFF is reached ----------------------------------------


    CHARGE:  cpu time    0.3377: real time    0.3377
    FORLOC:  cpu time    0.0208: real time    0.0208
    FORNL :  cpu time    0.3867: real time    0.3867
    STRESS:  cpu time    2.7385: real time    2.7388
    FORCOR:  cpu time    0.3051: real time    0.3051
    FORHAR:  cpu time    0.0671: real time    0.0671
    MIXING:  cpu time    0.0108: real time    0.0108
    OFIELD:  cpu time    0.0001: real time    0.0001

 ---------------------------------------------------------------------------------------------

         DFTD3 V3.0 Rev 1        
 Edisp (eV)   -1.23041

 E6    (eV) :    -0.3539
 E8    (eV) :    -0.8765
 % E8        : 71.24
    FORVDW:  cpu time    0.0198: real time    0.0198

  FORCE on cell =-STRESS in cart. coord.  units (eV):
  Direction    XX          YY          ZZ          XY          YZ          ZX
  --------------------------------------------------------------------------------------
  Alpha Z    41.93281    41.93281    41.93281
  Ewald    7447.06230  7447.06238 -8964.34812     0.00014     0.00001    -0.00003
  Hartree  7922.82200  7922.82203 -7739.13517     0.00005     0.00000    -0.00001
  E(xc)    -141.01231  -141.01231  -141.52156     0.00000     0.00000    -0.00000
  Local  -15996.29029-15996.29035 16068.68754    -0.00013    -0.00001     0.00004
  n-local   142.22276   142.22275   144.04178    -0.00000    -0.00000     0.00000
  augment    78.86867    78.86864    79.82822    -0.00003    -0.00000     0.00000
  Kinetic   505.20505   505.20503   510.64497    -0.00002    -0.00000     0.00001
  Fock        0.00000     0.00000     0.00000     0.00000     0.00000     0.00000
  vdW        -0.80147    -0.80148    -0.19514    -0.00000    -0.00000     0.00000
  -------------------------------------------------------------------------------------
  Total       0.00950     0.00950    -0.06469     0.00000    -0.00000     0.00001
  in kB       0.06574     0.06576    -0.44778     0.00001    -0.00001     0.00004
  external pressure =       -0.11 kB  Pullay stress =        0.00 kB


 VOLUME and BASIS-vectors are now :
 -----------------------------------------------------------------------------
  energy-cutoff  :      400.00
  volume of cell :      231.48
      direct lattice vectors                 reciprocal lattice vectors
     3.655528009 -0.036629028  0.000000000     0.275113245  0.155182161  0.000000000
    -1.796041249  3.184094946  0.000000000     0.003164834  0.315846163  0.000000000
     0.000000000  0.000000000 20.000000000     0.000000000  0.000000000  0.050000000

  length of vectors
     3.655711519  3.655711256 20.000000000     0.315861996  0.315862019  0.050000000


 FORCES acting on ions
    electron-ion (+dipol)            ewald-force                    non-local-force                 convergence-correction
 -----------------------------------------------------------------------------------------------
   0.835E-04 -.604E-04 0.982E+03   -.913E-04 0.652E-04 -.987E+03   0.760E-05 -.540E-05 0.510E+01   -.437E-06 0.706E-06 -.116E-02
   0.814E-04 -.535E-04 -.991E+03   -.866E-04 0.575E-04 0.994E+03   0.312E-05 -.198E-05 -.262E+01   0.252E-06 -.377E-06 0.239E-03
   -.749E-04 0.520E-04 -.562E+03   0.697E-04 -.477E-04 0.556E+03   0.442E-05 -.377E-05 0.645E+01   -.336E-06 0.348E-06 -.162E-02
   -.119E-03 0.819E-04 0.569E+03   0.108E-03 -.749E-04 -.563E+03   0.903E-05 -.558E-05 -.631E+01   0.701E-06 -.786E-06 -.173E-02
 -----------------------------------------------------------------------------------------------
   -.287E-04 0.200E-04 -.261E+01   -.713E-14 0.183E-13 0.000E+00   0.242E-04 -.167E-04 0.261E+01   0.181E-06 -.110E-06 -.426E-02
 
 
 POSITION                                       TOTAL-FORCE (eV/Angst)
 -----------------------------------------------------------------------------------
     -0.89783      1.59192      3.39127         0.000000     -0.000001      0.000474
     -0.89783      1.59192      7.69274        -0.000001      0.000001     -0.000495
      0.91936      0.51835      6.20213         0.000000      0.000000     -0.000139
      0.94051      2.62887      4.71852         0.000000     -0.000000      0.000160
 -----------------------------------------------------------------------------------
    total drift:                               -0.000004      0.000003     -0.000444


--------------------------------------------------------------------------------------------------------



  FREE ENERGIE OF THE ION-ELECTRON SYSTEM (eV)
  ---------------------------------------------------
  free  energy   TOTEN  =       -17.78685952 eV

  energy  without entropy=      -17.78685952  energy(sigma->0) =      -17.78685952
 
 d Force = 0.6204655E-07[ 0.434E-07, 0.807E-07]  d Energy = 0.1166705E-06-0.546E-07
 d Force =-0.8999694E-01[-0.900E-01,-0.900E-01]  d Ewald  =-0.8999694E-01 0.130E-09


--------------------------------------------------------------------------------------------------------


    POTLOK:  cpu time    0.3174: real time    0.3174


--------------------------------------------------------------------------------------------------------


 Quasi-Newton relaxation of ions (Broydens 2nd method)
  g(Force)  = 0.248E-07   g(Stress)= 0.000E+00

 retain information from N=  1 steps
 eigenvalues of (default step * inverse Hessian matrix)
  average eigenvalue of G=   1.9818
 eigenvalue spectrum of G is  1.9818


--------------------------------------------------------------------------------------------------------


  
 reached required accuracy - stopping structural energy minimisation
 writing wavefunctions
     LOOP+:  cpu time   14.6964: real time   14.6978
    4ORBIT:  cpu time    0.0000: real time    0.0000

 total amount of memory used by VASP MPI-rank0   231325. kBytes
=======================================================================

   base      :      30000. kBytes
   nonl-proj :     117609. kBytes
   fftplans  :      11208. kBytes
   grid      :      23989. kBytes
   one-center:         62. kBytes
   wavefun   :      48457. kBytes
 
  
  
 General timing and accounting informations for this job:
 ========================================================
  
                  Total CPU time used (sec):      151.122
                            User time (sec):      148.994
                          System time (sec):        2.128
                         Elapsed time (sec):      151.393
  
                   Maximum memory used (kb):      356656.
                   Average memory used (kb):           0.
  
                          Minor page faults:       102858
                          Major page faults:            0
                 Voluntary context switches:           69
