 running on    8 total cores
 distrk:  each k-point on    2 cores,    4 groups
 distr:  one band on    1 cores,    2 groups
 using from now: INCAR     
 vasp.5.4.4.16052018 (build Dec 07 2020 11:33:42) complex                       
  
 POSCAR found type information on POSCAR  Cl Br Pt
 POSCAR found :  3 types and       4 ions
 scaLAPACK will be used

 ----------------------------------------------------------------------------- 
|                                                                             |
|           W    W    AA    RRRRR   N    N  II  N    N   GGGG   !!!           |
|           W    W   A  A   R    R  NN   N  II  NN   N  G    G  !!!           |
|           W    W  A    A  R    R  N N  N  II  N N  N  G       !!!           |
|           W WW W  AAAAAA  RRRRR   N  N N  II  N  N N  G  GGG   !            |
|           WW  WW  A    A  R   R   N   NN  II  N   NN  G    G                |
|           W    W  A    A  R    R  N    N  II  N    N   GGGG   !!!           |
|                                                                             |
|      For optimal performance we recommend to set                            |
|        NCORE= 4 - approx SQRT( number of cores)                             |
|      NCORE specifies how many cores store one orbital (NPAR=cpu/NCORE).     |
|      This setting can  greatly improve the performance of VASP for DFT.     |
|      The default,   NCORE=1            might be grossly inefficient         |
|      on modern multi-core architectures or massively parallel machines.     |
|      Do your own testing !!!!                                               |
|      Unfortunately you need to use the default for GW and RPA calculations. |
|      (for HF NCORE is supported but not extensively tested yet)             |
|                                                                             |
 ----------------------------------------------------------------------------- 


 ----------------------------------------------------------------------------- 
|                                                                             |
|           W    W    AA    RRRRR   N    N  II  N    N   GGGG   !!!           |
|           W    W   A  A   R    R  NN   N  II  NN   N  G    G  !!!           |
|           W    W  A    A  R    R  N N  N  II  N N  N  G       !!!           |
|           W WW W  AAAAAA  RRRRR   N  N N  II  N  N N  G  GGG   !            |
|           WW  WW  A    A  R   R   N   NN  II  N   NN  G    G                |
|           W    W  A    A  R    R  N    N  II  N    N   GGGG   !!!           |
|                                                                             |
|      You have enabled k-point parallelism (KPAR>1).                         |
|      This developmental code was originally  written by Paul Kent at ORNL,  |
|      and carefully double checked in Vienna.                                |
|      GW as well as linear response parallelism added by Martijn Marsman     |
|      and Georg Kresse.                                                      |
|      Carefully verify results versus KPAR=1.                                |
|      Report problems to Paul Kent and Vienna.                               |
|                                                                             |
 ----------------------------------------------------------------------------- 

 LDA part: xc-table for Pade appr. of Perdew
 POSCAR, INCAR and KPOINTS ok, starting setup
 FFT: planning ...
 WAVECAR not read
 entering main loop
       N       E                     dE             d eps       ncg     rms          rms(c)
DAV:   1     0.245068159162E+03    0.24507E+03   -0.11687E+04  2816   0.998E+02
DAV:   2     0.506896695833E+01   -0.24000E+03   -0.22750E+03  4140   0.222E+02
DAV:   3    -0.169060793488E+02   -0.21975E+02   -0.21514E+02  3374   0.751E+01
DAV:   4    -0.174171342202E+02   -0.51105E+00   -0.50938E+00  3490   0.129E+01
DAV:   5    -0.174303347766E+02   -0.13201E-01   -0.13197E-01  3414   0.205E+00    0.167E+01
DAV:   6    -0.165823047644E+02    0.84803E+00   -0.22679E+00  3506   0.134E+01    0.928E+00
DAV:   7    -0.165765542665E+02    0.57505E-02   -0.59005E-01  3308   0.751E+00    0.306E+00
DAV:   8    -0.166231937682E+02   -0.46640E-01   -0.43731E-01  3464   0.935E+00    0.244E+00
DAV:   9    -0.165255189578E+02    0.97675E-01   -0.15432E-01  3494   0.558E+00    0.419E-01
DAV:  10    -0.165241923376E+02    0.13266E-02   -0.24996E-02  3314   0.111E+00    0.186E-01
DAV:  11    -0.165239171016E+02    0.27524E-03   -0.26532E-03  3482   0.469E-01    0.876E-02
DAV:  12    -0.165239176393E+02   -0.53770E-06   -0.32346E-04  4384   0.123E-01    0.478E-02
DAV:  13    -0.165239353955E+02   -0.17756E-04   -0.11159E-04  3272   0.642E-02    0.185E-02
DAV:  14    -0.165239633832E+02   -0.27988E-04   -0.17400E-05  3344   0.372E-02    0.198E-02
DAV:  15    -0.165239732740E+02   -0.98908E-05   -0.16589E-06  3374   0.142E-02    0.115E-02
DAV:  16    -0.165240154695E+02   -0.42196E-04   -0.10184E-05  3158   0.141E-02    0.444E-03
DAV:  17    -0.165240231825E+02   -0.77130E-05   -0.47533E-07  3638   0.470E-03    0.391E-03
DAV:  18    -0.165240476847E+02   -0.24502E-04   -0.39587E-06  3140   0.705E-03    0.397E-03
DAV:  19    -0.165240506634E+02   -0.29787E-05   -0.22293E-07  3128   0.232E-03    0.235E-03
DAV:  20    -0.165240528101E+02   -0.21467E-05   -0.98257E-08  2568   0.139E-03    0.997E-04
DAV:  21    -0.165240544384E+02   -0.16283E-05   -0.76432E-08  2538   0.112E-03    0.247E-04
DAV:  22    -0.165240553457E+02   -0.90721E-06   -0.37345E-08  2352   0.829E-04    0.482E-04
DAV:  23    -0.165240559534E+02   -0.60780E-06   -0.79839E-09  2338   0.408E-04    0.312E-04
DAV:  24    -0.165240568919E+02   -0.93841E-06   -0.23468E-08  2304   0.639E-04    0.184E-04
DAV:  25    -0.165240570235E+02   -0.13160E-06   -0.39223E-09  2464   0.261E-04    0.141E-04
DAV:  26    -0.165240571174E+02   -0.93964E-07   -0.28597E-09  2350   0.213E-04    0.804E-05
DAV:  27    -0.165240570924E+02    0.25064E-07   -0.25863E-09  2344   0.319E-04
   1 F= -.17770154E+02 E0= -.17770154E+02  d E =-.177702E+02
stress tensor set to zero in row and column 1
stress tensor set to zero in row and column 2
stress tensor set to zero in row and column 3
 BRION: g(F)=  0.507E-02 g(S)=  0.000E+00
 bond charge predicted
       N       E                     dE             d eps       ncg     rms          rms(c)
DAV:   1    -0.165271810963E+02   -0.31240E-02   -0.71975E-01  2816   0.449E+00    0.368E-01
DAV:   2    -0.165287698366E+02   -0.15887E-02   -0.17630E-02  3332   0.847E-01    0.148E-01
DAV:   3    -0.165287085052E+02    0.61331E-04   -0.38248E-04  3524   0.183E-01    0.101E-01
DAV:   4    -0.165287729300E+02   -0.64425E-04   -0.32873E-04  3470   0.245E-01    0.866E-02
DAV:   5    -0.165286973104E+02    0.75620E-04   -0.20487E-04  3308   0.192E-01    0.125E-02
DAV:   6    -0.165286974388E+02   -0.12838E-06   -0.29763E-05  3212   0.391E-02    0.116E-02
DAV:   7    -0.165286961603E+02    0.12785E-05   -0.25080E-06  3374   0.100E-02    0.686E-03
DAV:   8    -0.165286951198E+02    0.10405E-05   -0.55171E-06  3392   0.129E-02    0.287E-03
DAV:   9    -0.165286951576E+02   -0.37817E-07   -0.63521E-07  3308   0.486E-03    0.781E-04
DAV:  10    -0.165286951698E+02   -0.12175E-07   -0.15651E-08  2374   0.958E-04
   2 F= -.17773825E+02 E0= -.17773825E+02  d E =-.367138E-02
stress tensor set to zero in row and column 1
stress tensor set to zero in row and column 2
stress tensor set to zero in row and column 3
 BRION: g(F)=  0.228E-02 g(S)=  0.000E+00 retain N=  1 mean eig= 0.95
 eig:   0.952
 bond charge predicted
       N       E                     dE             d eps       ncg     rms          rms(c)
DAV:   1    -0.165302826361E+02   -0.15875E-02   -0.19597E-01  2816   0.234E+00    0.266E-01
DAV:   2    -0.165309672310E+02   -0.68459E-03   -0.80272E-03  3380   0.521E-01    0.675E-02
DAV:   3    -0.165309593016E+02    0.79294E-05   -0.14072E-04  3422   0.117E-01    0.489E-02
DAV:   4    -0.165309615138E+02   -0.22122E-05   -0.67323E-05  3296   0.115E-01    0.377E-02
DAV:   5    -0.165309497837E+02    0.11730E-04   -0.48030E-05  3482   0.760E-02    0.607E-03
DAV:   6    -0.165309498177E+02   -0.33975E-07   -0.76983E-06  3470   0.184E-02    0.574E-03
DAV:   7    -0.165309495740E+02    0.24370E-06   -0.61717E-07  3542   0.492E-03    0.383E-03
DAV:   8    -0.165309495561E+02    0.17887E-07   -0.58889E-07  3260   0.427E-03    0.130E-03
DAV:   9    -0.165309496061E+02   -0.50062E-07   -0.68845E-08  2640   0.164E-03    0.352E-04
DAV:  10    -0.165309496506E+02   -0.44507E-07   -0.18577E-08  2266   0.816E-04
   3 F= -.17775577E+02 E0= -.17775577E+02  d E =-.175222E-02
stress tensor set to zero in row and column 1
stress tensor set to zero in row and column 2
stress tensor set to zero in row and column 3
 BRION: g(F)=  0.105E-02 g(S)=  0.000E+00 retain N=  2 mean eig= 1.37
 eig:   1.372  1.372
 bond charge predicted
       N       E                     dE             d eps       ncg     rms          rms(c)
DAV:   1    -0.165311600600E+02   -0.21045E-03   -0.87612E-01  2816   0.496E+00    0.540E-01
DAV:   2    -0.165341574188E+02   -0.29974E-02   -0.33934E-02  3362   0.107E+00    0.166E-01
DAV:   3    -0.165340948206E+02    0.62598E-04   -0.51114E-04  3524   0.197E-01    0.117E-01
DAV:   4    -0.165341652559E+02   -0.70435E-04   -0.40094E-04  3434   0.260E-01    0.891E-02
DAV:   5    -0.165340698310E+02    0.95425E-04   -0.25392E-04  3398   0.216E-01    0.148E-02
DAV:   6    -0.165340682602E+02    0.15707E-05   -0.31610E-05  3170   0.420E-02    0.146E-02
DAV:   7    -0.165340666354E+02    0.16249E-05   -0.29918E-06  3314   0.112E-02    0.997E-03
DAV:   8    -0.165340657289E+02    0.90648E-06   -0.53604E-06  3332   0.129E-02    0.408E-03
DAV:   9    -0.165340658004E+02   -0.71465E-07   -0.75893E-07  3554   0.514E-03    0.125E-03
DAV:  10    -0.165340658402E+02   -0.39797E-07   -0.28309E-08  2284   0.124E-03
   4 F= -.17777211E+02 E0= -.17777211E+02  d E =-.163334E-02
stress tensor set to zero in row and column 1
stress tensor set to zero in row and column 2
stress tensor set to zero in row and column 3
 BRION: g(F)=  0.106E-04 g(S)=  0.000E+00 retain N=  2 mean eig= 2.00
 eig:   1.995  1.995
 bond charge predicted
       N       E                     dE             d eps       ncg     rms          rms(c)
DAV:   1    -0.165341344207E+02   -0.68620E-04   -0.32647E-03  2978   0.305E-01    0.301E-02
DAV:   2    -0.165341447245E+02   -0.10304E-04   -0.12013E-04  3284   0.679E-02    0.110E-02
DAV:   3    -0.165341446743E+02    0.50234E-07   -0.49901E-06  3326   0.275E-02    0.753E-03
DAV:   4    -0.165341444445E+02    0.22980E-06   -0.21507E-06  3458   0.226E-02    0.632E-03
DAV:   5    -0.165341441486E+02    0.29587E-06   -0.87163E-07  3368   0.970E-03    0.147E-03
DAV:   6    -0.165341441983E+02   -0.49716E-07   -0.20380E-07  3306   0.273E-03
   5 F= -.17777220E+02 E0= -.17777220E+02  d E =-.935098E-05
stress tensor set to zero in row and column 1
stress tensor set to zero in row and column 2
stress tensor set to zero in row and column 3
 BRION: g(F)=  0.351E-05 g(S)=  0.000E+00 retain N=  3 mean eig= 2.41
 eig:   3.164  3.164  0.896
 bond charge predicted
       N       E                     dE             d eps       ncg     rms          rms(c)
DAV:   1    -0.165341522995E+02   -0.81508E-05   -0.47899E-04  3116   0.116E-01    0.719E-03
DAV:   2    -0.165341532528E+02   -0.95338E-06   -0.10886E-05  3230   0.224E-02    0.364E-03
DAV:   3    -0.165341532187E+02    0.34157E-07   -0.61712E-07  3380   0.944E-03    0.236E-03
DAV:   4    -0.165341532082E+02    0.10493E-07   -0.21990E-07  2790   0.716E-03
   6 F= -.17777222E+02 E0= -.17777222E+02  d E =-.216431E-05
stress tensor set to zero in row and column 1
stress tensor set to zero in row and column 2
stress tensor set to zero in row and column 3
 BRION: g(F)=  0.150E-05 g(S)=  0.000E+00 retain N=  4 mean eig= 3.80
 eig:   6.465  6.465  1.144  1.144
 bond charge predicted
       N       E                     dE             d eps       ncg     rms          rms(c)
DAV:   1    -0.165341539422E+02   -0.72353E-06   -0.49123E-04  3164   0.117E-01    0.878E-03
DAV:   2    -0.165341556847E+02   -0.17425E-05   -0.19468E-05  3284   0.268E-02    0.406E-03
DAV:   3    -0.165341556899E+02   -0.51396E-08   -0.78367E-07  3278   0.108E-02    0.259E-03
DAV:   4    -0.165341556503E+02    0.39603E-07   -0.23766E-07  2878   0.749E-03
   7 F= -.17777225E+02 E0= -.17777225E+02  d E =-.215237E-05
stress tensor set to zero in row and column 1
stress tensor set to zero in row and column 2
stress tensor set to zero in row and column 3
 BRION: g(F)=  0.505E-06 g(S)=  0.000E+00 retain N=  2 mean eig= 2.20
 eig:   1.077  3.321
 bond charge predicted
       N       E                     dE             d eps       ncg     rms          rms(c)
DAV:   1    -0.165341536459E+02    0.20439E-05   -0.35322E-04  2948   0.999E-02    0.669E-03
DAV:   2    -0.165341548578E+02   -0.12118E-05   -0.13178E-05  3440   0.215E-02    0.275E-03
DAV:   3    -0.165341548533E+02    0.45002E-08   -0.17877E-07  3146   0.300E-03
   8 F= -.17777225E+02 E0= -.17777225E+02  d E =-.118626E-06
stress tensor set to zero in row and column 1
stress tensor set to zero in row and column 2
stress tensor set to zero in row and column 3
 BRION: g(F)=  0.555E-07 g(S)=  0.000E+00 retain N=  2 mean eig= 5.60
 eig:   5.600  5.600
 reached required accuracy - stopping structural energy minimisation
 writing wavefunctions
