 vasp.5.4.4.16052018 (build Dec 07 2020 11:33:42) complex                       
  
 executed on             LinuxIFC date 2020.12.16  02:42:05
 running on    8 total cores
 distrk:  each k-point on    2 cores,    4 groups
 distr:  one band on NCORES_PER_BAND=   1 cores,    2 groups


--------------------------------------------------------------------------------------------------------


 INCAR:
 POTCAR:    PAW_PBE Cl 06Sep2000                  
 POTCAR:    PAW_PBE Br 06Sep2000                  
 POTCAR:    PAW_PBE Pt 04Feb2005                  

 ----------------------------------------------------------------------------- 
|                                                                             |
|           W    W    AA    RRRRR   N    N  II  N    N   GGGG   !!!           |
|           W    W   A  A   R    R  NN   N  II  NN   N  G    G  !!!           |
|           W    W  A    A  R    R  N N  N  II  N N  N  G       !!!           |
|           W WW W  AAAAAA  RRRRR   N  N N  II  N  N N  G  GGG   !            |
|           WW  WW  A    A  R   R   N   NN  II  N   NN  G    G                |
|           W    W  A    A  R    R  N    N  II  N    N   GGGG   !!!           |
|                                                                             |
|      For optimal performance we recommend to set                            |
|        NCORE= 4 - approx SQRT( number of cores)                             |
|      NCORE specifies how many cores store one orbital (NPAR=cpu/NCORE).     |
|      This setting can  greatly improve the performance of VASP for DFT.     |
|      The default,   NCORE=1            might be grossly inefficient         |
|      on modern multi-core architectures or massively parallel machines.     |
|      Do your own testing !!!!                                               |
|      Unfortunately you need to use the default for GW and RPA calculations. |
|      (for HF NCORE is supported but not extensively tested yet)             |
|                                                                             |
 ----------------------------------------------------------------------------- 


 ----------------------------------------------------------------------------- 
|                                                                             |
|           W    W    AA    RRRRR   N    N  II  N    N   GGGG   !!!           |
|           W    W   A  A   R    R  NN   N  II  NN   N  G    G  !!!           |
|           W    W  A    A  R    R  N N  N  II  N N  N  G       !!!           |
|           W WW W  AAAAAA  RRRRR   N  N N  II  N  N N  G  GGG   !            |
|           WW  WW  A    A  R   R   N   NN  II  N   NN  G    G                |
|           W    W  A    A  R    R  N    N  II  N    N   GGGG   !!!           |
|                                                                             |
|      You have enabled k-point parallelism (KPAR>1).                         |
|      This developmental code was originally  written by Paul Kent at ORNL,  |
|      and carefully double checked in Vienna.                                |
|      GW as well as linear response parallelism added by Martijn Marsman     |
|      and Georg Kresse.                                                      |
|      Carefully verify results versus KPAR=1.                                |
|      Report problems to Paul Kent and Vienna.                               |
|                                                                             |
 ----------------------------------------------------------------------------- 

 POTCAR:    PAW_PBE Cl 06Sep2000                  
   VRHFIN =Cl: s2p5                                                             
   LEXCH  = PE                                                                  
   EATOM  =   409.7259 eV,   30.1140 Ry                                         
                                                                                
   TITEL  = PAW_PBE Cl 06Sep2000                                                
   LULTRA =        F    use ultrasoft PP ?                                      
   IUNSCR =        1    unscreen: 0-lin 1-nonlin 2-no                           
   RPACOR =    1.500    partial core radius                                     
   POMASS =   35.453; ZVAL   =    7.000    mass and valenz                      
   RCORE  =    1.900    outmost cutoff radius                                   
   RWIGS  =    2.100; RWIGS  =    1.111    wigner-seitz radius (au A)           
   ENMAX  =  262.472; ENMIN  =  196.854 eV                                      
   ICORE  =        2    local potential                                         
   LCOR   =        T    correct aug charges                                     
   LPAW   =        T    paw PP                                                  
   EAUG   =  356.192                                                            
   DEXC   =    0.000                                                            
   RMAX   =    1.945    core radius for proj-oper                               
   RAUG   =    1.300    factor for augmentation sphere                          
   RDEP   =    2.020    radius for radial grids                                 
   RDEPT  =    1.678    core radius for aug-charge                              
                                                                                
   Atomic configuration                                                         
    6 entries                                                                   
     n  l   j            E        occ.                                          
     1  0  0.50     -2751.1850   2.0000                                         
     2  0  0.50      -252.6861   2.0000                                         
     2  1  1.50      -191.6157   6.0000                                         
     3  0  0.50       -20.6916   2.0000                                         
     3  1  0.50        -8.5949   5.0000                                         
     3  2  1.50        -8.1635   0.0000                                         
   Description                                                                  
     l       E           TYP  RCUT    TYP  RCUT                                 
     0    -20.6915656     23  1.900                                             
     0    -22.0521482     23  1.900                                             
     1     -8.5948577     23  1.900                                             
     1     -5.3847331     23  1.900                                             
     2     -8.1634956     23  1.900                                             
  local pseudopotential read in
  partial core-charges read in
  partial kinetic energy density read in
  atomic valenz-charges read in
  non local Contribution for L=           0  read in
    real space projection operators read in
  non local Contribution for L=           0  read in
    real space projection operators read in
  non local Contribution for L=           1  read in
    real space projection operators read in
  non local Contribution for L=           1  read in
    real space projection operators read in
    PAW grid and wavefunctions read in
 
   number of l-projection  operators is LMAX  =           4
   number of lm-projection operators is LMMAX =           8
 
 POTCAR:    PAW_PBE Br 06Sep2000                  
   VRHFIN =Br: s2p5                                                             
   LEXCH  = PE                                                                  
   EATOM  =   368.4488 eV,   27.0802 Ry                                         
                                                                                
   TITEL  = PAW_PBE Br 06Sep2000                                                
   LULTRA =        F    use ultrasoft PP ?                                      
   IUNSCR =        1    unscreen: 0-lin 1-nonlin 2-no                           
   RPACOR =    1.900    partial core radius                                     
   POMASS =   79.904; ZVAL   =    7.000    mass and valenz                      
   RCORE  =    2.100    outmost cutoff radius                                   
   RWIGS  =    2.200; RWIGS  =    1.164    wigner-seitz radius (au A)           
   ENMAX  =  216.285; ENMIN  =  162.214 eV                                      
   ICORE  =        3    local potential                                         
   LCOR   =        T    correct aug charges                                     
   LPAW   =        T    paw PP                                                  
   EAUG   =  503.852                                                            
   DEXC   =    0.000                                                            
   RMAX   =    2.139    core radius for proj-oper                               
   RAUG   =    1.300    factor for augmentation sphere                          
   RDEP   =    2.186    radius for radial grids                                 
   RDEPT  =    1.890    core radius for aug-charge                              
                                                                                
   Atomic configuration                                                         
   10 entries                                                                   
     n  l   j            E        occ.                                          
     1  0  0.50    -13316.2796   2.0000                                         
     2  0  0.50     -1732.8239   2.0000                                         
     2  1  1.50     -1528.2193   6.0000                                         
     3  0  0.50      -238.0460   2.0000                                         
     3  1  1.50      -173.4609   6.0000                                         
     3  2  2.50       -66.7132  10.0000                                         
     4  0  0.50       -20.1334   2.0000                                         
     4  1  0.50        -7.8591   5.0000                                         
     4  2  2.50        -8.1635   0.0000                                         
     4  3  2.50        -8.1635   0.0000                                         
   Description                                                                  
     l       E           TYP  RCUT    TYP  RCUT                                 
     0    -20.1333652     23  2.100                                             
     0    -21.4939478     23  2.100                                             
     1     -7.8591052     23  2.100                                             
     1     -3.1608434     23  2.100                                             
     2     -8.1634956     23  2.100                                             
     3     -1.3605826      7  2.100                                             
  local pseudopotential read in
  partial core-charges read in
  partial kinetic energy density read in
  atomic valenz-charges read in
  non local Contribution for L=           0  read in
    real space projection operators read in
  non local Contribution for L=           0  read in
    real space projection operators read in
  non local Contribution for L=           1  read in
    real space projection operators read in
  non local Contribution for L=           1  read in
    real space projection operators read in
  non local Contribution for L=           2  read in
    real space projection operators read in
    PAW grid and wavefunctions read in
 
   number of l-projection  operators is LMAX  =           5
   number of lm-projection operators is LMMAX =          13
 
 POTCAR:    PAW_PBE Pt 04Feb2005                  
   VRHFIN =Pt: s1d9                                                             
   LEXCH  = PE                                                                  
   EATOM  =   729.1176 eV,   53.5886 Ry                                         
                                                                                
   TITEL  = PAW_PBE Pt 04Feb2005                                                
   LULTRA =        F    use ultrasoft PP ?                                      
   IUNSCR =        1    unscreen: 0-lin 1-nonlin 2-no                           
   RPACOR =    2.330    partial core radius                                     
   POMASS =  195.080; ZVAL   =   10.000    mass and valenz                      
   RCORE  =    2.600    outmost cutoff radius                                   
   RWIGS  =    2.750; RWIGS  =    1.455    wigner-seitz radius (au A)           
   ENMAX  =  230.283; ENMIN  =  172.712 eV                                      
   ICORE  =        3    local potential                                         
   LCOR   =        T    correct aug charges                                     
   LPAW   =        T    paw PP                                                  
   EAUG   =  358.966                                                            
   DEXC   =    0.000                                                            
   RMAX   =    2.658    core radius for proj-oper                               
   RAUG   =    1.300    factor for augmentation sphere                          
   RDEP   =    2.761    radius for radial grids                                 
   RDEPT  =    2.203    core radius for aug-charge                              
                                                                                
   Atomic configuration                                                         
   16 entries                                                                   
     n  l   j            E        occ.                                          
     1  0  0.50    -78401.1885   2.0000                                         
     2  0  0.50    -13770.7750   2.0000                                         
     2  1  1.50    -11931.0468   6.0000                                         
     3  0  0.50     -3234.7234   2.0000                                         
     3  1  1.50     -2699.2216   6.0000                                         
     3  2  2.50     -2119.5714  10.0000                                         
     4  0  0.50      -695.1528   2.0000                                         
     4  1  1.50      -519.6034   6.0000                                         
     4  2  2.50      -306.6786  10.0000                                         
     4  3  3.50       -70.1041  14.0000                                         
     5  0  0.50      -101.7747   2.0000                                         
     5  1  1.50       -55.9873   6.0000                                         
     5  2  2.50        -6.1423   9.0000                                         
     6  0  0.50        -5.6573   1.0000                                         
     6  1  1.50        -6.8029   0.0000                                         
     5  3  2.50        -1.3606   0.0000                                         
   Description                                                                  
     l       E           TYP  RCUT    TYP  RCUT                                 
     2     -6.1423404     23  2.500                                             
     2     -7.5029230     23  2.500                                             
     0     -5.6573207     23  2.500                                             
     0      0.7416693     23  2.500                                             
     1     -2.7211652     23  2.600                                             
     1     20.4087390     23  2.600                                             
     3     -1.3605826     23  2.500                                             
  local pseudopotential read in
  partial core-charges read in
  partial kinetic energy density read in
  atomic valenz-charges read in
  non local Contribution for L=           2  read in
    real space projection operators read in
  non local Contribution for L=           2  read in
    real space projection operators read in
  non local Contribution for L=           0  read in
    real space projection operators read in
  non local Contribution for L=           0  read in
    real space projection operators read in
  non local Contribution for L=           1  read in
    real space projection operators read in
  non local Contribution for L=           1  read in
    real space projection operators read in
    PAW grid and wavefunctions read in
 
   number of l-projection  operators is LMAX  =           6
   number of lm-projection operators is LMMAX =          18
 
  PAW_PBE Cl 06Sep2000                  :
 energy of atom  1       EATOM= -409.7259
 kinetic energy error for atom=    0.0089 (will be added to EATOM!!)
  PAW_PBE Br 06Sep2000                  :
 energy of atom  2       EATOM= -368.4488
 kinetic energy error for atom=    0.0032 (will be added to EATOM!!)
  PAW_PBE Pt 04Feb2005                  :
 energy of atom  3       EATOM= -729.1176
 kinetic energy error for atom=    0.0056 (will be added to EATOM!!)
 
 
 POSCAR: ClBrPt2                                 
  positions in direct lattice
  velocities in cartesian coordinates
 exchange correlation table for  LEXCH =        8
   RHO(1)=    0.500       N(1)  =     2000
   RHO(2)=  100.500       N(2)  =     4000
 


--------------------------------------------------------------------------------------------------------


 ion  position               nearest neighbor table
   1  0.000  0.500  0.170-   4 2.47   4 2.48   4 2.48
   2  0.000  0.500  0.385-   3 2.56   3 2.57   3 2.57
   3  0.333  0.167  0.310-   4 2.56   2 2.56   4 2.56   2 2.57   4 2.57   2 2.57
   4  0.667  0.833  0.236-   1 2.47   1 2.48   1 2.48   3 2.56   3 2.56   3 2.57
 

IMPORTANT INFORMATION: All symmetrisations will be switched off!
NOSYMM: (Re-)initialisation of all symmetry stuff for point group C_1.

 
 
 KPOINTS: Automatic mesh                          

Automatic generation of k-mesh.
Space group operators:
 irot       det(A)        alpha          n_x          n_y          n_z        tau_x        tau_y        tau_z
    1     1.000000     0.000000     1.000000     0.000000     0.000000     0.000000     0.000000     0.000000
 
 Subroutine IBZKPT returns following result:
 ===========================================
 
 Found     64 irreducible k-points:
 
 Following reciprocal coordinates:
            Coordinates               Weight
  0.000000  0.000000  0.000000      1.000000
  0.125000  0.000000  0.000000      1.000000
  0.250000  0.000000  0.000000      1.000000
  0.375000 -0.000000  0.000000      1.000000
  0.500000  0.000000  0.000000      1.000000
 -0.375000  0.000000  0.000000      1.000000
 -0.250000 -0.000000  0.000000      1.000000
 -0.125000 -0.000000  0.000000      1.000000
 -0.000000  0.125000  0.000000      1.000000
  0.125000  0.125000  0.000000      1.000000
  0.250000  0.125000  0.000000      1.000000
  0.375000  0.125000  0.000000      1.000000
  0.500000  0.125000  0.000000      1.000000
 -0.375000  0.125000  0.000000      1.000000
 -0.250000  0.125000  0.000000      1.000000
 -0.125000  0.125000  0.000000      1.000000
 -0.000000  0.250000  0.000000      1.000000
  0.125000  0.250000  0.000000      1.000000
  0.250000  0.250000  0.000000      1.000000
  0.375000  0.250000  0.000000      1.000000
  0.500000  0.250000  0.000000      1.000000
 -0.375000  0.250000  0.000000      1.000000
 -0.250000  0.250000  0.000000      1.000000
 -0.125000  0.250000  0.000000      1.000000
 -0.000000  0.375000  0.000000      1.000000
  0.125000  0.375000  0.000000      1.000000
  0.250000  0.375000  0.000000      1.000000
  0.375000  0.375000  0.000000      1.000000
  0.500000  0.375000  0.000000      1.000000
 -0.375000  0.375000  0.000000      1.000000
 -0.250000  0.375000  0.000000      1.000000
 -0.125000  0.375000  0.000000      1.000000
 -0.000000  0.500000  0.000000      1.000000
  0.125000  0.500000  0.000000      1.000000
  0.250000  0.500000  0.000000      1.000000
  0.375000  0.500000  0.000000      1.000000
  0.500000  0.500000  0.000000      1.000000
 -0.375000  0.500000  0.000000      1.000000
 -0.250000  0.500000  0.000000      1.000000
 -0.125000  0.500000  0.000000      1.000000
  0.000000 -0.375000  0.000000      1.000000
  0.125000 -0.375000  0.000000      1.000000
  0.250000 -0.375000  0.000000      1.000000
  0.375000 -0.375000  0.000000      1.000000
  0.500000 -0.375000  0.000000      1.000000
 -0.375000 -0.375000  0.000000      1.000000
 -0.250000 -0.375000  0.000000      1.000000
 -0.125000 -0.375000  0.000000      1.000000
  0.000000 -0.250000  0.000000      1.000000
  0.125000 -0.250000  0.000000      1.000000
  0.250000 -0.250000  0.000000      1.000000
  0.375000 -0.250000  0.000000      1.000000
  0.500000 -0.250000  0.000000      1.000000
 -0.375000 -0.250000  0.000000      1.000000
 -0.250000 -0.250000  0.000000      1.000000
 -0.125000 -0.250000  0.000000      1.000000
  0.000000 -0.125000  0.000000      1.000000
  0.125000 -0.125000  0.000000      1.000000
  0.250000 -0.125000  0.000000      1.000000
  0.375000 -0.125000  0.000000      1.000000
  0.500000 -0.125000  0.000000      1.000000
 -0.375000 -0.125000  0.000000      1.000000
 -0.250000 -0.125000  0.000000      1.000000
 -0.125000 -0.125000  0.000000      1.000000
 
 Following cartesian coordinates:
            Coordinates               Weight
  0.000000  0.000000  0.000000      1.000000
  0.034741  0.019794  0.000000      1.000000
  0.069481  0.039588  0.000000      1.000000
  0.104222  0.059382  0.000000      1.000000
  0.138962  0.079176  0.000000      1.000000
 -0.104222 -0.059382  0.000000      1.000000
 -0.069481 -0.039588  0.000000      1.000000
 -0.034741 -0.019794  0.000000      1.000000
  0.000404  0.039884  0.000000      1.000000
  0.035144  0.059678  0.000000      1.000000
  0.069885  0.079472  0.000000      1.000000
  0.104625  0.099266  0.000000      1.000000
  0.139366  0.119060  0.000000      1.000000
 -0.103818 -0.019498  0.000000      1.000000
 -0.069077  0.000296  0.000000      1.000000
 -0.034337  0.020090  0.000000      1.000000
  0.000807  0.079768  0.000000      1.000000
  0.035548  0.099562  0.000000      1.000000
  0.070288  0.119356  0.000000      1.000000
  0.105029  0.139150  0.000000      1.000000
  0.139769  0.158944  0.000000      1.000000
 -0.103414  0.020387  0.000000      1.000000
 -0.068674  0.040181  0.000000      1.000000
 -0.033933  0.059974  0.000000      1.000000
  0.001211  0.119653  0.000000      1.000000
  0.035952  0.139446  0.000000      1.000000
  0.070692  0.159240  0.000000      1.000000
  0.105433  0.179034  0.000000      1.000000
  0.140173  0.198828  0.000000      1.000000
 -0.103011  0.060271  0.000000      1.000000
 -0.068270  0.080065  0.000000      1.000000
 -0.033529  0.099859  0.000000      1.000000
  0.001615  0.159537  0.000000      1.000000
  0.036355  0.179331  0.000000      1.000000
  0.071096  0.199124  0.000000      1.000000
  0.105836  0.218918  0.000000      1.000000
  0.140577  0.238712  0.000000      1.000000
 -0.102607  0.100155  0.000000      1.000000
 -0.067866  0.119949  0.000000      1.000000
 -0.033126  0.139743  0.000000      1.000000
 -0.001211 -0.119653  0.000000      1.000000
  0.033529 -0.099859  0.000000      1.000000
  0.068270 -0.080065  0.000000      1.000000
  0.103011 -0.060271  0.000000      1.000000
  0.137751 -0.040477  0.000000      1.000000
 -0.105433 -0.179034  0.000000      1.000000
 -0.070692 -0.159240  0.000000      1.000000
 -0.035952 -0.139446  0.000000      1.000000
 -0.000807 -0.079768  0.000000      1.000000
  0.033933 -0.059974  0.000000      1.000000
  0.068674 -0.040181  0.000000      1.000000
  0.103414 -0.020387  0.000000      1.000000
  0.138155 -0.000593  0.000000      1.000000
 -0.105029 -0.139150  0.000000      1.000000
 -0.070288 -0.119356  0.000000      1.000000
 -0.035548 -0.099562  0.000000      1.000000
 -0.000404 -0.039884  0.000000      1.000000
  0.034337 -0.020090  0.000000      1.000000
  0.069077 -0.000296  0.000000      1.000000
  0.103818  0.019498  0.000000      1.000000
  0.138558  0.039291  0.000000      1.000000
 -0.104625 -0.099266  0.000000      1.000000
 -0.069885 -0.079472  0.000000      1.000000
 -0.035144 -0.059678  0.000000      1.000000
 


--------------------------------------------------------------------------------------------------------




 Dimension of arrays:
   k-points           NKPTS =     64   k-points in BZ     NKDIM =     64   number of bands    NBANDS=     22
   number of dos      NEDOS =    301   number of ions     NIONS =      4
   non local maximal  LDIM  =      6   non local SUM 2l+1 LMDIM =     18
   total plane-waves  NPLWV =  80640
   max r-space proj   IRMAX =      1   max aug-charges    IRDMAX=  21728
   dimension x,y,z NGX =    24 NGY =   24 NGZ =  140
   dimension x,y,z NGXF=    48 NGYF=   48 NGZF=  280
   support grid    NGXF=    48 NGYF=   48 NGZF=  280
   ions per type =               1   1   2
   NGX,Y,Z   is equivalent  to a cutoff of  11.02, 11.00, 11.64 a.u.
   NGXF,Y,Z  is equivalent  to a cutoff of  22.05, 21.99, 23.27 a.u.

 SYSTEM =  unknown system                          
 POSCAR =  ClBrPt2                                 

 Startparameter for this run:
   NWRITE =      2    write-flag & timer
   PREC   = accura    normal or accurate (medium, high low for compatibility)
   ISTART =      0    job   : 0-new  1-cont  2-samecut
   ICHARG =      2    charge: 1-file 2-atom 10-const
   ISPIN  =      1    spin polarized calculation?
   LNONCOLLINEAR =      F non collinear calculations
   LSORBIT =      F    spin-orbit coupling
   INIWAV =      1    electr: 0-lowe 1-rand  2-diag
   LASPH  =      F    aspherical Exc in radial PAW
   METAGGA=      F    non-selfconsistent MetaGGA calc.

 Electronic Relaxation 1
   ENCUT  =  400.0 eV  29.40 Ry    5.42 a.u.   5.90  5.92 32.61*2*pi/ulx,y,z
   ENINI  =  400.0     initial cutoff
   ENAUG  =  503.9 eV  augmentation charge cutoff
   NELM   =     60;   NELMIN=  2; NELMDL= -5     # of ELM steps 
   EDIFF  = 0.5E-07   stopping-criterion for ELM
   LREAL  =      F    real-space projection
   NLSPLINE    = F    spline interpolate recip. space projectors
   LCOMPAT=      F    compatible to vasp.4.4
   GGA_COMPAT  = T    GGA compatible to vasp.4.4-vasp.4.6
   LMAXPAW     = -100 max onsite density
   LMAXMIX     =    2 max onsite mixed and CHGCAR
   VOSKOWN=      0    Vosko Wilk Nusair interpolation
   ROPT   =    0.00000   0.00000   0.00000
 Ionic relaxation
   EDIFFG = 0.5E-06   stopping-criterion for IOM
   NSW    =    100    number of steps for IOM
   NBLOCK =      1;   KBLOCK =    100    inner block; outer block 
   IBRION =      1    ionic relax: 0-MD 1-quasi-New 2-CG
   NFREE  =      0    steps in history (QN), initial steepest desc. (CG)
   ISIF   =      3    stress and relaxation
   IWAVPR =     11    prediction:  0-non 1-charg 2-wave 3-comb
   ISYM   =     -1    0-nonsym 1-usesym 2-fastsym
   LCORR  =      T    Harris-Foulkes like correction to forces

   POTIM  = 0.5000    time-step for ionic-motion
   TEIN   =    0.0    initial temperature
   TEBEG  =    0.0;   TEEND  =   0.0 temperature during run
   SMASS  =  -3.00    Nose mass-parameter (am)
   estimated Nose-frequenzy (Omega)   =  0.10E-29 period in steps =****** mass=  -0.299E-27a.u.
   SCALEE = 1.0000    scale energy and forces
   NPACO  =    256;   APACO  = 16.0  distance and # of slots for P.C.
   PSTRESS=    0.0 pullay stress

  Mass of Ions in am
   POMASS =  35.45 79.90195.08
  Ionic Valenz
   ZVAL   =   7.00  7.00 10.00
  Atomic Wigner-Seitz radii
   RWIGS  =  -1.00 -1.00 -1.00
  virtual crystal weights 
   VCA    =   1.00  1.00  1.00
   NELECT =      34.0000    total number of electrons
   NUPDOWN=      -1.0000    fix difference up-down

 DOS related values:
   EMIN   =  10.00;   EMAX   =-10.00  energy-range for DOS
   EFERMI =   0.00
   ISMEAR =     0;   SIGMA  =   0.10  broadening in eV -4-tet -1-fermi 0-gaus

 Electronic relaxation 2 (details)
   IALGO  =     38    algorithm
   LDIAG  =      T    sub-space diagonalisation (order eigenvalues)
   LSUBROT=      F    optimize rotation matrix (better conditioning)
   TURBO    =      0    0=normal 1=particle mesh
   IRESTART =      0    0=no restart 2=restart with 2 vectors
   NREBOOT  =      0    no. of reboots
   NMIN     =      0    reboot dimension
   EREF     =   0.00    reference energy to select bands
   IMIX   =      4    mixing-type and parameters
     AMIX     =   0.40;   BMIX     =  1.00
     AMIX_MAG =   1.60;   BMIX_MAG =  1.00
     AMIN     =   0.10
     WC   =   100.;   INIMIX=   1;  MIXPRE=   1;  MAXMIX= -45

 Intra band minimization:
   WEIMIN = 0.0010     energy-eigenvalue tresh-hold
   EBREAK =  0.57E-09  absolut break condition
   DEPER  =   0.30     relativ break condition  

   TIME   =   0.40     timestep for ELM

  volume/ion in A,a.u.               =      56.71       382.70
  Fermi-wavevector in a.u.,A,eV,Ry     =   0.869613  1.643331 10.289099  0.756227
  Thomas-Fermi vector in A             =   1.988461
 
 Write flags
   LWAVE        =      T    write WAVECAR
   LDOWNSAMPLE  =      F    k-point downsampling of WAVECAR
   LCHARG       =      T    write CHGCAR
   LVTOT        =      F    write LOCPOT, total local potential
   LVHAR        =      F    write LOCPOT, Hartree potential only
   LELF         =      F    write electronic localiz. function (ELF)
   LORBIT       =      0    0 simple, 1 ext, 2 COOP (PROOUT), +10 PAW based schemes


 Dipole corrections
   LMONO  =      F    monopole corrections only (constant potential shift)
   LDIPOL =      T    correct potential (dipole corrections)
   IDIPOL =      3    1-x, 2-y, 3-z, 4-all directions 
   EPSILON=  1.0000000 bulk dielectric constant

 Exchange correlation treatment:
   GGA     =    --    GGA type
   LEXCH   =     8    internal setting for exchange type
   VOSKOWN=      0    Vosko Wilk Nusair interpolation
   LHFCALC =     F    Hartree Fock is set to
   LHFONE  =     F    Hartree Fock one center treatment
   AEXX    =    0.0000 exact exchange contribution

 Linear response parameters
   LEPSILON=     F    determine dielectric tensor
   LRPA    =     F    only Hartree local field effects (RPA)
   LNABLA  =     F    use nabla operator in PAW spheres
   LVEL    =     F    velocity operator in full k-point grid
   LINTERFAST=   F  fast interpolation
   KINTER  =     0    interpolate to denser k-point grid
   CSHIFT  =0.1000    complex shift for real part using Kramers Kronig
   OMEGAMAX=  -1.0    maximum frequency
   DEG_THRESHOLD= 0.2000000E-02 threshold for treating states as degnerate
   RTIME   =   -0.100 relaxation time in fs
  (WPLASMAI=    0.000 imaginary part of plasma frequency in eV, 0.658/RTIME)
   DFIELD  = 0.0000000 0.0000000 0.0000000 field for delta impulse in time
 
 Orbital magnetization related:
   ORBITALMAG=     F  switch on orbital magnetization
   LCHIMAG   =     F  perturbation theory with respect to B field
   DQ        =  0.001000  dq finite difference perturbation B field
   LLRAUG    =     F  two centre corrections for induced B field



--------------------------------------------------------------------------------------------------------


 quasi-Newton-method for relaxation of ions
 charge density and potential will be updated during run
 non-spin polarized calculation
 Variant of blocked Davidson
 Davidson routine will perform the subspace rotation
 perform sub-space diagonalisation
    after iterative eigenvector-optimisation
 modified Broyden-mixing scheme, WC =      100.0
 initial mixing is a Kerker type mixing with AMIX =  0.4000 and BMIX =      1.0000
 Hartree-type preconditioning will be used
 using additional bands            5
 reciprocal scheme for non local part
 use partial core corrections
 calculate Harris-corrections to forces 
   (improved forces if not selfconsistent)
 use gradient corrections 
 use of overlap-Matrix (Vanderbilt PP)
 Gauss-broadening in eV      SIGMA  =   0.10


--------------------------------------------------------------------------------------------------------


  energy-cutoff  :      400.00
  volume of cell :      226.84
      direct lattice vectors                 reciprocal lattice vectors
     3.618972729 -0.036629028  0.000000000     0.277924242  0.158351263  0.000000000
    -1.796041249  3.152253996  0.000000000     0.003229465  0.319073353  0.000000000
     0.000000000  0.000000000 20.000000000     0.000000000  0.000000000  0.050000000

  length of vectors
     3.619158093  3.628011773 20.000000000     0.319870297  0.319089696  0.050000000


 
 k-points in units of 2pi/SCALE and weight: Automatic mesh                          
   0.00000000  0.00000000  0.00000000       0.016
   0.03474053  0.01979391  0.00000000       0.016
   0.06948106  0.03958782  0.00000000       0.016
   0.10422159  0.05938172  0.00000000       0.016
   0.13896212  0.07917563  0.00000000       0.016
  -0.10422159 -0.05938172  0.00000000       0.016
  -0.06948106 -0.03958782  0.00000000       0.016
  -0.03474053 -0.01979391  0.00000000       0.016
   0.00040368  0.03988417  0.00000000       0.016
   0.03514421  0.05967808  0.00000000       0.016
   0.06988474  0.07947198  0.00000000       0.016
   0.10462527  0.09926589  0.00000000       0.016
   0.13936580  0.11905980  0.00000000       0.016
  -0.10381791 -0.01949755  0.00000000       0.016
  -0.06907738  0.00029635  0.00000000       0.016
  -0.03433685  0.02009026  0.00000000       0.016
   0.00080737  0.07976834  0.00000000       0.016
   0.03554790  0.09956225  0.00000000       0.016
   0.07028843  0.11935615  0.00000000       0.016
   0.10502896  0.13915006  0.00000000       0.016
   0.13976949  0.15894397  0.00000000       0.016
  -0.10341422  0.02038661  0.00000000       0.016
  -0.06867369  0.04018052  0.00000000       0.016
  -0.03393316  0.05997443  0.00000000       0.016
   0.00121105  0.11965251  0.00000000       0.016
   0.03595158  0.13944642  0.00000000       0.016
   0.07069211  0.15924032  0.00000000       0.016
   0.10543264  0.17903423  0.00000000       0.016
   0.14017317  0.19882814  0.00000000       0.016
  -0.10301054  0.06027078  0.00000000       0.016
  -0.06827001  0.08006469  0.00000000       0.016
  -0.03352948  0.09985860  0.00000000       0.016
   0.00161473  0.15953668  0.00000000       0.016
   0.03635526  0.17933058  0.00000000       0.016
   0.07109579  0.19912449  0.00000000       0.016
   0.10583632  0.21891840  0.00000000       0.016
   0.14057685  0.23871231  0.00000000       0.016
  -0.10260686  0.10015495  0.00000000       0.016
  -0.06786633  0.11994886  0.00000000       0.016
  -0.03312580  0.13974277  0.00000000       0.016
  -0.00121105 -0.11965251  0.00000000       0.016
   0.03352948 -0.09985860  0.00000000       0.016
   0.06827001 -0.08006469  0.00000000       0.016
   0.10301054 -0.06027078  0.00000000       0.016
   0.13775107 -0.04047688  0.00000000       0.016
  -0.10543264 -0.17903423  0.00000000       0.016
  -0.07069211 -0.15924032  0.00000000       0.016
  -0.03595158 -0.13944642  0.00000000       0.016
  -0.00080737 -0.07976834  0.00000000       0.016
   0.03393316 -0.05997443  0.00000000       0.016
   0.06867369 -0.04018052  0.00000000       0.016
   0.10341422 -0.02038661  0.00000000       0.016
   0.13815475 -0.00059271  0.00000000       0.016
  -0.10502896 -0.13915006  0.00000000       0.016
  -0.07028843 -0.11935615  0.00000000       0.016
  -0.03554790 -0.09956225  0.00000000       0.016
  -0.00040368 -0.03988417  0.00000000       0.016
   0.03433685 -0.02009026  0.00000000       0.016
   0.06907738 -0.00029635  0.00000000       0.016
   0.10381791  0.01949755  0.00000000       0.016
   0.13855844  0.03929146  0.00000000       0.016
  -0.10462527 -0.09926589  0.00000000       0.016
  -0.06988474 -0.07947198  0.00000000       0.016
  -0.03514421 -0.05967808  0.00000000       0.016
 
 k-points in reciprocal lattice and weights: Automatic mesh                          
   0.00000000  0.00000000  0.00000000       0.016
   0.12500000  0.00000000  0.00000000       0.016
   0.25000000  0.00000000  0.00000000       0.016
   0.37500000 -0.00000000  0.00000000       0.016
   0.50000000  0.00000000  0.00000000       0.016
  -0.37500000  0.00000000  0.00000000       0.016
  -0.25000000 -0.00000000  0.00000000       0.016
  -0.12500000 -0.00000000  0.00000000       0.016
  -0.00000000  0.12500000  0.00000000       0.016
   0.12500000  0.12500000  0.00000000       0.016
   0.25000000  0.12500000  0.00000000       0.016
   0.37500000  0.12500000  0.00000000       0.016
   0.50000000  0.12500000  0.00000000       0.016
  -0.37500000  0.12500000  0.00000000       0.016
  -0.25000000  0.12500000  0.00000000       0.016
  -0.12500000  0.12500000  0.00000000       0.016
  -0.00000000  0.25000000  0.00000000       0.016
   0.12500000  0.25000000  0.00000000       0.016
   0.25000000  0.25000000  0.00000000       0.016
   0.37500000  0.25000000  0.00000000       0.016
   0.50000000  0.25000000  0.00000000       0.016
  -0.37500000  0.25000000  0.00000000       0.016
  -0.25000000  0.25000000  0.00000000       0.016
  -0.12500000  0.25000000  0.00000000       0.016
  -0.00000000  0.37500000  0.00000000       0.016
   0.12500000  0.37500000  0.00000000       0.016
   0.25000000  0.37500000  0.00000000       0.016
   0.37500000  0.37500000  0.00000000       0.016
   0.50000000  0.37500000  0.00000000       0.016
  -0.37500000  0.37500000  0.00000000       0.016
  -0.25000000  0.37500000  0.00000000       0.016
  -0.12500000  0.37500000  0.00000000       0.016
  -0.00000000  0.50000000  0.00000000       0.016
   0.12500000  0.50000000  0.00000000       0.016
   0.25000000  0.50000000  0.00000000       0.016
   0.37500000  0.50000000  0.00000000       0.016
   0.50000000  0.50000000  0.00000000       0.016
  -0.37500000  0.50000000  0.00000000       0.016
  -0.25000000  0.50000000  0.00000000       0.016
  -0.12500000  0.50000000  0.00000000       0.016
   0.00000000 -0.37500000  0.00000000       0.016
   0.12500000 -0.37500000  0.00000000       0.016
   0.25000000 -0.37500000  0.00000000       0.016
   0.37500000 -0.37500000  0.00000000       0.016
   0.50000000 -0.37500000  0.00000000       0.016
  -0.37500000 -0.37500000  0.00000000       0.016
  -0.25000000 -0.37500000  0.00000000       0.016
  -0.12500000 -0.37500000  0.00000000       0.016
   0.00000000 -0.25000000  0.00000000       0.016
   0.12500000 -0.25000000  0.00000000       0.016
   0.25000000 -0.25000000  0.00000000       0.016
   0.37500000 -0.25000000  0.00000000       0.016
   0.50000000 -0.25000000  0.00000000       0.016
  -0.37500000 -0.25000000  0.00000000       0.016
  -0.25000000 -0.25000000  0.00000000       0.016
  -0.12500000 -0.25000000  0.00000000       0.016
   0.00000000 -0.12500000  0.00000000       0.016
   0.12500000 -0.12500000  0.00000000       0.016
   0.25000000 -0.12500000  0.00000000       0.016
   0.37500000 -0.12500000  0.00000000       0.016
   0.50000000 -0.12500000  0.00000000       0.016
  -0.37500000 -0.12500000  0.00000000       0.016
  -0.25000000 -0.12500000  0.00000000       0.016
  -0.12500000 -0.12500000  0.00000000       0.016
 
 position of ions in fractional coordinates (direct lattice) 
   0.00003260  0.49996075  0.16956139
   0.00003230  0.49996081  0.38463917
   0.33336554  0.16662771  0.31010675
   0.66669896  0.83329437  0.23592599
 
 position of ions in cartesian coordinates  (Angst):
  -0.89783214  1.57600207  3.39122782
  -0.89783337  1.57600229  7.69278339
   0.90717057  0.51304201  6.20213491
   0.91613428  2.60233497  4.71851980
 


--------------------------------------------------------------------------------------------------------


 k-point  1 :   0.0000 0.0000 0.0000  plane waves:    4091
 k-point  2 :   0.1250 0.0000 0.0000  plane waves:    4082
 k-point  3 :   0.2500 0.0000 0.0000  plane waves:    4103
 k-point  4 :   0.3750-0.0000 0.0000  plane waves:    4126
 k-point  5 :   0.5000 0.0000 0.0000  plane waves:    4140
 k-point  6 :  -0.3750 0.0000 0.0000  plane waves:    4126
 k-point  7 :  -0.2500-0.0000 0.0000  plane waves:    4103
 k-point  8 :  -0.1250-0.0000 0.0000  plane waves:    4082
 k-point  9 :  -0.0000 0.1250 0.0000  plane waves:    4072
 k-point 10 :   0.1250 0.1250 0.0000  plane waves:    4106
 k-point 11 :   0.2500 0.1250 0.0000  plane waves:    4121
 k-point 12 :   0.3750 0.1250 0.0000  plane waves:    4138
 k-point 13 :   0.5000 0.1250 0.0000  plane waves:    4140
 k-point 14 :  -0.3750 0.1250 0.0000  plane waves:    4127
 k-point 15 :  -0.2500 0.1250 0.0000  plane waves:    4098
 k-point 16 :  -0.1250 0.1250 0.0000  plane waves:    4076
 k-point 17 :  -0.0000 0.2500 0.0000  plane waves:    4111
 k-point 18 :   0.1250 0.2500 0.0000  plane waves:    4117
 k-point 19 :   0.2500 0.2500 0.0000  plane waves:    4140
 k-point 20 :   0.3750 0.2500 0.0000  plane waves:    4142
 k-point 21 :   0.5000 0.2500 0.0000  plane waves:    4142
 k-point 22 :  -0.3750 0.2500 0.0000  plane waves:    4129
 k-point 23 :  -0.2500 0.2500 0.0000  plane waves:    4111
 k-point 24 :  -0.1250 0.2500 0.0000  plane waves:    4104
 k-point 25 :  -0.0000 0.3750 0.0000  plane waves:    4126
 k-point 26 :   0.1250 0.3750 0.0000  plane waves:    4131
 k-point 27 :   0.2500 0.3750 0.0000  plane waves:    4133
 k-point 28 :   0.3750 0.3750 0.0000  plane waves:    4146
 k-point 29 :   0.5000 0.3750 0.0000  plane waves:    4131
 k-point 30 :  -0.3750 0.3750 0.0000  plane waves:    4136
 k-point 31 :  -0.2500 0.3750 0.0000  plane waves:    4128
 k-point 32 :  -0.1250 0.3750 0.0000  plane waves:    4131
 k-point 33 :  -0.0000 0.5000 0.0000  plane waves:    4144
 k-point 34 :   0.1250 0.5000 0.0000  plane waves:    4131
 k-point 35 :   0.2500 0.5000 0.0000  plane waves:    4138
 k-point 36 :   0.3750 0.5000 0.0000  plane waves:    4133
 k-point 37 :   0.5000 0.5000 0.0000  plane waves:    4140
 k-point 38 :  -0.3750 0.5000 0.0000  plane waves:    4133
 k-point 39 :  -0.2500 0.5000 0.0000  plane waves:    4138
 k-point 40 :  -0.1250 0.5000 0.0000  plane waves:    4131
 k-point 41 :   0.0000-0.3750 0.0000  plane waves:    4126
 k-point 42 :   0.1250-0.3750 0.0000  plane waves:    4131
 k-point 43 :   0.2500-0.3750 0.0000  plane waves:    4128
 k-point 44 :   0.3750-0.3750 0.0000  plane waves:    4136
 k-point 45 :   0.5000-0.3750 0.0000  plane waves:    4131
 k-point 46 :  -0.3750-0.3750 0.0000  plane waves:    4146
 k-point 47 :  -0.2500-0.3750 0.0000  plane waves:    4133
 k-point 48 :  -0.1250-0.3750 0.0000  plane waves:    4131
 k-point 49 :   0.0000-0.2500 0.0000  plane waves:    4111
 k-point 50 :   0.1250-0.2500 0.0000  plane waves:    4104
 k-point 51 :   0.2500-0.2500 0.0000  plane waves:    4111
 k-point 52 :   0.3750-0.2500 0.0000  plane waves:    4129
 k-point 53 :   0.5000-0.2500 0.0000  plane waves:    4142
 k-point 54 :  -0.3750-0.2500 0.0000  plane waves:    4142
 k-point 55 :  -0.2500-0.2500 0.0000  plane waves:    4140
 k-point 56 :  -0.1250-0.2500 0.0000  plane waves:    4117
 k-point 57 :   0.0000-0.1250 0.0000  plane waves:    4072
 k-point 58 :   0.1250-0.1250 0.0000  plane waves:    4076
 k-point 59 :   0.2500-0.1250 0.0000  plane waves:    4098
 k-point 60 :   0.3750-0.1250 0.0000  plane waves:    4127
 k-point 61 :   0.5000-0.1250 0.0000  plane waves:    4140
 k-point 62 :  -0.3750-0.1250 0.0000  plane waves:    4138
 k-point 63 :  -0.2500-0.1250 0.0000  plane waves:    4121
 k-point 64 :  -0.1250-0.1250 0.0000  plane waves:    4106

 maximum and minimum number of plane-waves per node :      4146     4072

 maximum number of plane-waves:      4146
 maximum index in each direction: 
   IXMAX=    6   IYMAX=    6   IZMAX=   32
   IXMIN=   -6   IYMIN=   -6   IZMIN=  -32


 serial   3D FFT for wavefunctions
 parallel 3D FFT for charge:
    minimum data exchange during FFTs selected (reduces bandwidth)


 total amount of memory used by VASP MPI-rank0   227505. kBytes
=======================================================================

   base      :      30000. kBytes
   nonl-proj :     114893. kBytes
   fftplans  :      11208. kBytes
   grid      :      23989. kBytes
   one-center:         62. kBytes
   wavefun   :      47353. kBytes
 
     INWAV:  cpu time    0.0000: real time    0.0001
 Broyden mixing: mesh for mixing (old mesh)
   NGX = 11   NGY = 11   NGZ = 65
  (NGX  = 48   NGY  = 48   NGZ  =280)
  gives a total of   7865 points

 initial charge density was supplied:
 charge density of overlapping atoms calculated
 number of electron      34.0000000 magnetization 
 keeping initial charge density in first step


--------------------------------------------------------------------------------------------------------


 Maximum index for augmentation-charges        10452 (set IRDMAX)


--------------------------------------------------------------------------------------------------------


 First call to EWALD:  gamma=   0.291
 Maximum number of real-space cells 5x 5x 1
 Maximum number of reciprocal cells 2x 2x 8

    FEWALD:  cpu time    0.0017: real time    0.0017


--------------------------------------- Iteration      1(   1)  ---------------------------------------


    POTLOK:  cpu time    0.3466: real time    0.3466
    SETDIJ:  cpu time    0.0152: real time    0.0152
     EDDAV:  cpu time    4.2219: real time    4.2222
       DOS:  cpu time    0.0010: real time    0.0010
    --------------------------------------------
      LOOP:  cpu time    4.5846: real time    4.5850

 eigenvalue-minimisations  :  2816
 total energy-change (2. order) : 0.2450682E+03  (-0.1168715E+04)
 number of electron      34.0000000 magnetization 
 augmentation part       34.0000000 magnetization 

 DIPCOR: dipole corrections for dipol
 direction  3 min pos   211,
 dipolmoment           0.000000      0.000000     -0.000026 electrons x Angstroem
 Tr[quadrupol]       -78.774135

 energy correction for charged system         0.000000 eV
 dipol+quadrupol energy correction           -0.000000 eV
 added-field ion interaction          0.000343 eV  (added to PSCEN)


 Free energy of the ion-electron system (eV)
  ---------------------------------------------------
  alpha Z        PSCENC =        42.78949254
  Ewald energy   TEWEN  =      6081.87162191
  -Hartree energ DENC   =     -8271.38057646
  -exchange      EXHF   =         0.00000000
  -V(xc)+E(xc)   XCENC  =        37.37464716
  PAW double counting   =      2012.60260865    -1949.97488812
  entropy T*S    EENTRO =        -0.01084514
  eigenvalues    EBANDS =        55.40959853
  atomic energy  EATOM  =      2236.38650011
  Solvation  Ediel_sol  =         0.00000000
  ---------------------------------------------------
  free energy    TOTEN  =       245.06815916 eV

  energy without entropy =      245.07900430  energy(sigma->0) =      245.07358173


--------------------------------------------------------------------------------------------------------




--------------------------------------- Iteration      1(   2)  ---------------------------------------


     EDDAV:  cpu time    5.2228: real time    5.2238
       DOS:  cpu time    0.0011: real time    0.0011
    --------------------------------------------
      LOOP:  cpu time    5.2240: real time    5.2249

 eigenvalue-minimisations  :  4140
 total energy-change (2. order) :-0.2399992E+03  (-0.2274978E+03)
 number of electron      34.0000000 magnetization 
 augmentation part       34.0000000 magnetization 

 DIPCOR: dipole corrections for dipol
 direction  3 min pos   211,
 dipolmoment           0.000000      0.000000     -0.000026 electrons x Angstroem
 Tr[quadrupol]       -78.774135

 energy correction for charged system         0.000000 eV
 dipol+quadrupol energy correction           -0.000000 eV
 added-field ion interaction          0.000343 eV  (added to PSCEN)


 Free energy of the ion-electron system (eV)
  ---------------------------------------------------
  alpha Z        PSCENC =        42.78949254
  Ewald energy   TEWEN  =      6081.87162191
  -Hartree energ DENC   =     -8271.38057646
  -exchange      EXHF   =         0.00000000
  -V(xc)+E(xc)   XCENC  =        37.37464716
  PAW double counting   =      2012.60260865    -1949.97488812
  entropy T*S    EENTRO =        -0.00442595
  eigenvalues    EBANDS =      -184.59601287
  atomic energy  EATOM  =      2236.38650011
  Solvation  Ediel_sol  =         0.00000000
  ---------------------------------------------------
  free energy    TOTEN  =         5.06896696 eV

  energy without entropy =        5.07339290  energy(sigma->0) =        5.07117993


--------------------------------------------------------------------------------------------------------




--------------------------------------- Iteration      1(   3)  ---------------------------------------


     EDDAV:  cpu time    5.0352: real time    5.0364
       DOS:  cpu time    0.0007: real time    0.0007
    --------------------------------------------
      LOOP:  cpu time    5.0359: real time    5.0371

 eigenvalue-minimisations  :  3374
 total energy-change (2. order) :-0.2197505E+02  (-0.2151352E+02)
 number of electron      34.0000000 magnetization 
 augmentation part       34.0000000 magnetization 

 DIPCOR: dipole corrections for dipol
 direction  3 min pos   211,
 dipolmoment           0.000000      0.000000     -0.000026 electrons x Angstroem
 Tr[quadrupol]       -78.774135

 energy correction for charged system         0.000000 eV
 dipol+quadrupol energy correction           -0.000000 eV
 added-field ion interaction          0.000343 eV  (added to PSCEN)


 Free energy of the ion-electron system (eV)
  ---------------------------------------------------
  alpha Z        PSCENC =        42.78949254
  Ewald energy   TEWEN  =      6081.87162191
  -Hartree energ DENC   =     -8271.38057646
  -exchange      EXHF   =         0.00000000
  -V(xc)+E(xc)   XCENC  =        37.37464716
  PAW double counting   =      2012.60260865    -1949.97488812
  entropy T*S    EENTRO =        -0.00000000
  eigenvalues    EBANDS =      -206.57548513
  atomic energy  EATOM  =      2236.38650011
  Solvation  Ediel_sol  =         0.00000000
  ---------------------------------------------------
  free energy    TOTEN  =       -16.90607935 eV

  energy without entropy =      -16.90607935  energy(sigma->0) =      -16.90607935


--------------------------------------------------------------------------------------------------------




--------------------------------------- Iteration      1(   4)  ---------------------------------------


     EDDAV:  cpu time    5.0021: real time    5.0047
       DOS:  cpu time    0.0007: real time    0.0007
    --------------------------------------------
      LOOP:  cpu time    5.0028: real time    5.0053

 eigenvalue-minimisations  :  3490
 total energy-change (2. order) :-0.5110549E+00  (-0.5093765E+00)
 number of electron      34.0000000 magnetization 
 augmentation part       34.0000000 magnetization 

 DIPCOR: dipole corrections for dipol
 direction  3 min pos   211,
 dipolmoment           0.000000      0.000000     -0.000026 electrons x Angstroem
 Tr[quadrupol]       -78.774135

 energy correction for charged system         0.000000 eV
 dipol+quadrupol energy correction           -0.000000 eV
 added-field ion interaction          0.000343 eV  (added to PSCEN)


 Free energy of the ion-electron system (eV)
  ---------------------------------------------------
  alpha Z        PSCENC =        42.78949254
  Ewald energy   TEWEN  =      6081.87162191
  -Hartree energ DENC   =     -8271.38057646
  -exchange      EXHF   =         0.00000000
  -V(xc)+E(xc)   XCENC  =        37.37464716
  PAW double counting   =      2012.60260865    -1949.97488812
  entropy T*S    EENTRO =        -0.00000000
  eigenvalues    EBANDS =      -207.08654000
  atomic energy  EATOM  =      2236.38650011
  Solvation  Ediel_sol  =         0.00000000
  ---------------------------------------------------
  free energy    TOTEN  =       -17.41713422 eV

  energy without entropy =      -17.41713422  energy(sigma->0) =      -17.41713422


--------------------------------------------------------------------------------------------------------




--------------------------------------- Iteration      1(   5)  ---------------------------------------


     EDDAV:  cpu time    5.1653: real time    5.1985
       DOS:  cpu time    0.0007: real time    0.0007
    CHARGE:  cpu time    0.4298: real time    0.4299
    MIXING:  cpu time    0.0109: real time    0.0109
    --------------------------------------------
      LOOP:  cpu time    5.6067: real time    5.6401

 eigenvalue-minimisations  :  3414
 total energy-change (2. order) :-0.1320056E-01  (-0.1319691E-01)
 number of electron      34.0000002 magnetization 
 augmentation part        3.4241288 magnetization 

 DIPCOR: dipole corrections for dipol
 direction  3 min pos   211,
 dipolmoment           0.000000      0.000000     -0.000026 electrons x Angstroem
 Tr[quadrupol]       -78.774135

 energy correction for charged system         0.000000 eV
 dipol+quadrupol energy correction           -0.000000 eV
 added-field ion interaction          0.000343 eV  (added to PSCEN)


 Broyden mixing:
  rms(total) = 0.16654E+01    rms(broyden)= 0.16653E+01
  rms(prec ) = 0.16879E+01
  weight for this iteration     100.00

 Free energy of the ion-electron system (eV)
  ---------------------------------------------------
  alpha Z        PSCENC =        42.78949254
  Ewald energy   TEWEN  =      6081.87162191
  -Hartree energ DENC   =     -8271.38057646
  -exchange      EXHF   =         0.00000000
  -V(xc)+E(xc)   XCENC  =        37.37464716
  PAW double counting   =      2012.60260865    -1949.97488812
  entropy T*S    EENTRO =        -0.00000000
  eigenvalues    EBANDS =      -207.09974055
  atomic energy  EATOM  =      2236.38650011
  Solvation  Ediel_sol  =         0.00000000
  ---------------------------------------------------
  free energy    TOTEN  =       -17.43033478 eV

  energy without entropy =      -17.43033478  energy(sigma->0) =      -17.43033478


--------------------------------------------------------------------------------------------------------




--------------------------------------- Iteration      1(   6)  ---------------------------------------


    POTLOK:  cpu time    0.3393: real time    0.3394
    SETDIJ:  cpu time    0.0106: real time    0.0106
     EDDAV:  cpu time    5.0984: real time    5.1011
       DOS:  cpu time    0.0008: real time    0.0021
    CHARGE:  cpu time    0.4090: real time    0.4090
    MIXING:  cpu time    0.0112: real time    0.0112
    --------------------------------------------
      LOOP:  cpu time    5.8692: real time    5.8734

 eigenvalue-minimisations  :  3506
 total energy-change (2. order) : 0.8480300E+00  (-0.2267865E+00)
 number of electron      34.0000002 magnetization 
 augmentation part        3.8301092 magnetization 

 DIPCOR: dipole corrections for dipol
 direction  3 min pos   214,
 dipolmoment           0.000000      0.000000     -0.033491 electrons x Angstroem
 Tr[quadrupol]       -78.746942

 energy correction for charged system         0.000000 eV
 dipol+quadrupol energy correction           -0.000447 eV
 added-field ion interaction          0.254037 eV  (added to PSCEN)


 Broyden mixing:
  rms(total) = 0.92807E+00    rms(broyden)= 0.92806E+00
  rms(prec ) = 0.93240E+00
  weight for this iteration     100.00

 eigenvalues of (default mixing * dielectric matrix)
  average eigenvalue GAMMA=   1.9056
  1.9056

 Free energy of the ion-electron system (eV)
  ---------------------------------------------------
  alpha Z        PSCENC =        43.04273903
  Ewald energy   TEWEN  =      6081.87162191
  -Hartree energ DENC   =     -8256.35498907
  -exchange      EXHF   =         0.00000000
  -V(xc)+E(xc)   XCENC  =        37.08680776
  PAW double counting   =      2297.94437070    -2238.48902547
  entropy T*S    EENTRO =        -0.00000000
  eigenvalues    EBANDS =      -218.07032973
  atomic energy  EATOM  =      2236.38650011
  Solvation  Ediel_sol  =         0.00000000
  ---------------------------------------------------
  free energy    TOTEN  =       -16.58230476 eV

  energy without entropy =      -16.58230476  energy(sigma->0) =      -16.58230476


--------------------------------------------------------------------------------------------------------




--------------------------------------- Iteration      1(   7)  ---------------------------------------


    POTLOK:  cpu time    0.3310: real time    0.3311
    SETDIJ:  cpu time    0.0106: real time    0.0106
     EDDAV:  cpu time    4.8478: real time    4.8623
       DOS:  cpu time    0.0007: real time    0.0007
    CHARGE:  cpu time    0.3659: real time    0.3659
    MIXING:  cpu time    0.0109: real time    0.0109
    --------------------------------------------
      LOOP:  cpu time    5.5669: real time    5.5815

 eigenvalue-minimisations  :  3308
 total energy-change (2. order) : 0.5750498E-02  (-0.5900473E-01)
 number of electron      34.0000002 magnetization 
 augmentation part        3.8129089 magnetization 

 DIPCOR: dipole corrections for dipol
 direction  3 min pos   207,
 dipolmoment           0.000000      0.000000     -0.002253 electrons x Angstroem
 Tr[quadrupol]       -78.977890

 energy correction for charged system         0.000000 eV
 dipol+quadrupol energy correction           -0.000002 eV
 added-field ion interaction          0.047633 eV  (added to PSCEN)


 Broyden mixing:
  rms(total) = 0.30574E+00    rms(broyden)= 0.30573E+00
  rms(prec ) = 0.32609E+00
  weight for this iteration     100.00

 eigenvalues of (default mixing * dielectric matrix)
  average eigenvalue GAMMA=   1.5732
  0.8392  2.3073

 Free energy of the ion-electron system (eV)
  ---------------------------------------------------
  alpha Z        PSCENC =        42.83678086
  Ewald energy   TEWEN  =      6081.87162191
  -Hartree energ DENC   =     -8260.89290998
  -exchange      EXHF   =         0.00000000
  -V(xc)+E(xc)   XCENC  =        37.00706626
  PAW double counting   =      2646.32310054    -2589.20756905
  entropy T*S    EENTRO =        -0.00000000
  eigenvalues    EBANDS =      -210.90114492
  atomic energy  EATOM  =      2236.38650011
  Solvation  Ediel_sol  =         0.00000000
  ---------------------------------------------------
  free energy    TOTEN  =       -16.57655427 eV

  energy without entropy =      -16.57655427  energy(sigma->0) =      -16.57655427


--------------------------------------------------------------------------------------------------------




--------------------------------------- Iteration      1(   8)  ---------------------------------------


    POTLOK:  cpu time    0.3153: real time    0.3155
    SETDIJ:  cpu time    0.0252: real time    0.0252
     EDDAV:  cpu time    5.0947: real time    5.2005
       DOS:  cpu time    0.0007: real time    0.0007
    CHARGE:  cpu time    0.3870: real time    0.3870
    MIXING:  cpu time    0.0111: real time    0.0111
    --------------------------------------------
      LOOP:  cpu time    5.8341: real time    5.9399

 eigenvalue-minimisations  :  3464
 total energy-change (2. order) :-0.4663950E-01  (-0.4373096E-01)
 number of electron      34.0000002 magnetization 
 augmentation part        3.8189662 magnetization 

 DIPCOR: dipole corrections for dipol
 direction  3 min pos   218,
 dipolmoment           0.000000      0.000000     -0.068821 electrons x Angstroem
 Tr[quadrupol]       -78.976641

 energy correction for charged system         0.000000 eV
 dipol+quadrupol energy correction           -0.001889 eV
 added-field ion interaction         -0.011275 eV  (added to PSCEN)


 Broyden mixing:
  rms(total) = 0.24446E+00    rms(broyden)= 0.24445E+00
  rms(prec ) = 0.29409E+00
  weight for this iteration     100.00

 eigenvalues of (default mixing * dielectric matrix)
  average eigenvalue GAMMA=   1.2664
  2.4287  0.9621  0.4085

 Free energy of the ion-electron system (eV)
  ---------------------------------------------------
  alpha Z        PSCENC =        42.77598577
  Ewald energy   TEWEN  =      6081.87162191
  -Hartree energ DENC   =     -8260.33911173
  -exchange      EXHF   =         0.00000000
  -V(xc)+E(xc)   XCENC  =        37.02833684
  PAW double counting   =      2759.01216562    -2702.52899334
  entropy T*S    EENTRO =        -0.00000000
  eigenvalues    EBANDS =      -210.82969895
  atomic energy  EATOM  =      2236.38650011
  Solvation  Ediel_sol  =         0.00000000
  ---------------------------------------------------
  free energy    TOTEN  =       -16.62319377 eV

  energy without entropy =      -16.62319377  energy(sigma->0) =      -16.62319377


--------------------------------------------------------------------------------------------------------




--------------------------------------- Iteration      1(   9)  ---------------------------------------


    POTLOK:  cpu time    0.3230: real time    0.3231
    SETDIJ:  cpu time    0.0102: real time    0.0102
     EDDAV:  cpu time    5.0370: real time    5.0377
       DOS:  cpu time    0.0008: real time    0.0008
    CHARGE:  cpu time    0.4498: real time    0.4499
    MIXING:  cpu time    0.0128: real time    0.0180
    --------------------------------------------
      LOOP:  cpu time    5.8335: real time    5.8409

 eigenvalue-minimisations  :  3494
 total energy-change (2. order) : 0.9767481E-01  (-0.1543204E-01)
 number of electron      34.0000002 magnetization 
 augmentation part        3.8423219 magnetization 

 DIPCOR: dipole corrections for dipol
 direction  3 min pos   210,
 dipolmoment           0.000000      0.000000     -0.024113 electrons x Angstroem
 Tr[quadrupol]       -78.991283

 energy correction for charged system         0.000000 eV
 dipol+quadrupol energy correction           -0.000232 eV
 added-field ion interaction          0.369765 eV  (added to PSCEN)


 Broyden mixing:
  rms(total) = 0.41889E-01    rms(broyden)= 0.41871E-01
  rms(prec ) = 0.44710E-01
  weight for this iteration     100.00

 eigenvalues of (default mixing * dielectric matrix)
  average eigenvalue GAMMA=   1.3045
  2.4907  1.4300  0.9010  0.3963

 Free energy of the ion-electron system (eV)
  ---------------------------------------------------
  alpha Z        PSCENC =        43.15868261
  Ewald energy   TEWEN  =      6081.87162191
  -Hartree energ DENC   =     -8259.43140585
  -exchange      EXHF   =         0.00000000
  -V(xc)+E(xc)   XCENC  =        37.03779114
  PAW double counting   =      2783.82283831    -2727.45234364
  entropy T*S    EENTRO =        -0.00000000
  eigenvalues    EBANDS =      -211.91920355
  atomic energy  EATOM  =      2236.38650011
  Solvation  Ediel_sol  =         0.00000000
  ---------------------------------------------------
  free energy    TOTEN  =       -16.52551896 eV

  energy without entropy =      -16.52551896  energy(sigma->0) =      -16.52551896


--------------------------------------------------------------------------------------------------------




--------------------------------------- Iteration      1(  10)  ---------------------------------------


    POTLOK:  cpu time    0.3355: real time    0.3494
    SETDIJ:  cpu time    0.0080: real time    0.0135
     EDDAV:  cpu time    4.5634: real time    4.6240
       DOS:  cpu time    0.0007: real time    0.0007
    CHARGE:  cpu time    0.4045: real time    0.4045
    MIXING:  cpu time    0.0119: real time    0.0119
    --------------------------------------------
      LOOP:  cpu time    5.3240: real time    5.4040

 eigenvalue-minimisations  :  3314
 total energy-change (2. order) : 0.1326620E-02  (-0.2499586E-02)
 number of electron      34.0000002 magnetization 
 augmentation part        3.8399910 magnetization 

 DIPCOR: dipole corrections for dipol
 direction  3 min pos   221,
 dipolmoment           0.000000      0.000000     -0.037718 electrons x Angstroem
 Tr[quadrupol]       -78.935188

 energy correction for charged system         0.000000 eV
 dipol+quadrupol energy correction           -0.000567 eV
 added-field ion interaction         -0.225389 eV  (added to PSCEN)


 Broyden mixing:
  rms(total) = 0.18616E-01    rms(broyden)= 0.18615E-01
  rms(prec ) = 0.22147E-01
  weight for this iteration     100.00

 eigenvalues of (default mixing * dielectric matrix)
  average eigenvalue GAMMA=   1.2343
  2.4692  1.5455  0.8869  0.8869  0.3831

 Free energy of the ion-electron system (eV)
  ---------------------------------------------------
  alpha Z        PSCENC =        42.56319291
  Ewald energy   TEWEN  =      6081.87162191
  -Hartree energ DENC   =     -8259.64980223
  -exchange      EXHF   =         0.00000000
  -V(xc)+E(xc)   XCENC  =        37.07341990
  PAW double counting   =      2792.90816877    -2736.50026236
  entropy T*S    EENTRO =        -0.00000000
  eigenvalues    EBANDS =      -211.17703135
  atomic energy  EATOM  =      2236.38650011
  Solvation  Ediel_sol  =         0.00000000
  ---------------------------------------------------
  free energy    TOTEN  =       -16.52419234 eV

  energy without entropy =      -16.52419234  energy(sigma->0) =      -16.52419234


--------------------------------------------------------------------------------------------------------




--------------------------------------- Iteration      1(  11)  ---------------------------------------


    POTLOK:  cpu time    0.3502: real time    0.3514
    SETDIJ:  cpu time    0.0087: real time    0.0087
     EDDAV:  cpu time    5.0808: real time    5.0856
       DOS:  cpu time    0.0007: real time    0.0007
    CHARGE:  cpu time    0.4375: real time    0.4375
    MIXING:  cpu time    0.0116: real time    0.0116
    --------------------------------------------
      LOOP:  cpu time    5.8894: real time    5.8944

 eigenvalue-minimisations  :  3482
 total energy-change (2. order) : 0.2752361E-03  (-0.2653151E-03)
 number of electron      34.0000002 magnetization 
 augmentation part        3.8374571 magnetization 

 DIPCOR: dipole corrections for dipol
 direction  3 min pos   227,
 dipolmoment           0.000000      0.000000     -0.036978 electrons x Angstroem
 Tr[quadrupol]       -78.912985

 energy correction for charged system         0.000000 eV
 dipol+quadrupol energy correction           -0.000545 eV
 added-field ion interaction         -0.650796 eV  (added to PSCEN)


 Broyden mixing:
  rms(total) = 0.87571E-02    rms(broyden)= 0.87563E-02
  rms(prec ) = 0.93577E-02
  weight for this iteration     100.00

 eigenvalues of (default mixing * dielectric matrix)
  average eigenvalue GAMMA=   1.2184
  2.4252  1.8929  0.3841  0.9789  0.8145  0.8145

 Free energy of the ion-electron system (eV)
  ---------------------------------------------------
  alpha Z        PSCENC =        42.13780845
  Ewald energy   TEWEN  =      6081.87162191
  -Hartree energ DENC   =     -8259.98113484
  -exchange      EXHF   =         0.00000000
  -V(xc)+E(xc)   XCENC  =        37.07993280
  PAW double counting   =      2791.44029487    -2735.01653776
  entropy T*S    EENTRO =        -0.00000000
  eigenvalues    EBANDS =      -210.44240264
  atomic energy  EATOM  =      2236.38650011
  Solvation  Ediel_sol  =         0.00000000
  ---------------------------------------------------
  free energy    TOTEN  =       -16.52391710 eV

  energy without entropy =      -16.52391710  energy(sigma->0) =      -16.52391710


--------------------------------------------------------------------------------------------------------




--------------------------------------- Iteration      1(  12)  ---------------------------------------


    POTLOK:  cpu time    0.3292: real time    0.3293
    SETDIJ:  cpu time    0.0083: real time    0.0083
     EDDAV:  cpu time    6.1468: real time    6.1581
       DOS:  cpu time    0.0009: real time    0.0091
    CHARGE:  cpu time    0.4735: real time    0.4771
    MIXING:  cpu time    0.0125: real time    0.0167
    --------------------------------------------
      LOOP:  cpu time    6.9712: real time    7.0008

 eigenvalue-minimisations  :  4384
 total energy-change (2. order) :-0.5376974E-06  (-0.3234602E-04)
 number of electron      34.0000002 magnetization 
 augmentation part        3.8363801 magnetization 

 DIPCOR: dipole corrections for dipol
 direction  3 min pos   230,
 dipolmoment           0.000000      0.000000     -0.036844 electrons x Angstroem
 Tr[quadrupol]       -78.903153

 energy correction for charged system         0.000000 eV
 dipol+quadrupol energy correction           -0.000541 eV
 added-field ion interaction         -0.862551 eV  (added to PSCEN)


 Broyden mixing:
  rms(total) = 0.47806E-02    rms(broyden)= 0.47804E-02
  rms(prec ) = 0.51210E-02
  weight for this iteration     100.00

 eigenvalues of (default mixing * dielectric matrix)
  average eigenvalue GAMMA=   1.2565
  2.3854  1.9678  1.4525  0.9543  0.9543  0.3841  0.6969

 Free energy of the ion-electron system (eV)
  ---------------------------------------------------
  alpha Z        PSCENC =        41.92605726
  Ewald energy   TEWEN  =      6081.87162191
  -Hartree energ DENC   =     -8260.18272346
  -exchange      EXHF   =         0.00000000
  -V(xc)+E(xc)   XCENC  =        37.08319534
  PAW double counting   =      2789.73230269    -2733.30068056
  entropy T*S    EENTRO =        -0.00000000
  eigenvalues    EBANDS =      -210.04019093
  atomic energy  EATOM  =      2236.38650011
  Solvation  Ediel_sol  =         0.00000000
  ---------------------------------------------------
  free energy    TOTEN  =       -16.52391764 eV

  energy without entropy =      -16.52391764  energy(sigma->0) =      -16.52391764


--------------------------------------------------------------------------------------------------------




--------------------------------------- Iteration      1(  13)  ---------------------------------------


    POTLOK:  cpu time    0.3765: real time    0.3815
    SETDIJ:  cpu time    0.0079: real time    0.0093
     EDDAV:  cpu time    4.8393: real time    4.8721
       DOS:  cpu time    0.0008: real time    0.0021
    CHARGE:  cpu time    0.4048: real time    0.4048
    MIXING:  cpu time    0.0138: real time    0.0187
    --------------------------------------------
      LOOP:  cpu time    5.6430: real time    5.6883

 eigenvalue-minimisations  :  3272
 total energy-change (2. order) :-0.1775625E-04  (-0.1115866E-04)
 number of electron      34.0000002 magnetization 
 augmentation part        3.8369449 magnetization 

 DIPCOR: dipole corrections for dipol
 direction  3 min pos   231,
 dipolmoment           0.000000      0.000000     -0.036268 electrons x Angstroem
 Tr[quadrupol]       -78.905998

 energy correction for charged system         0.000000 eV
 dipol+quadrupol energy correction           -0.000525 eV
 added-field ion interaction         -0.919335 eV  (added to PSCEN)


 Broyden mixing:
  rms(total) = 0.18514E-02    rms(broyden)= 0.18513E-02
  rms(prec ) = 0.21322E-02
  weight for this iteration     100.00

 eigenvalues of (default mixing * dielectric matrix)
  average eigenvalue GAMMA=   1.3238
  2.6099  2.6099  0.3842  1.1810  1.1810  0.8883  0.8679  0.8679

 Free energy of the ion-electron system (eV)
  ---------------------------------------------------
  alpha Z        PSCENC =        41.86929043
  Ewald energy   TEWEN  =      6081.87162191
  -Hartree energ DENC   =     -8260.44399048
  -exchange      EXHF   =         0.00000000
  -V(xc)+E(xc)   XCENC  =        37.08582250
  PAW double counting   =      2786.47341296    -2730.04026018
  entropy T*S    EENTRO =        -0.00000000
  eigenvalues    EBANDS =      -209.72633264
  atomic energy  EATOM  =      2236.38650011
  Solvation  Ediel_sol  =         0.00000000
  ---------------------------------------------------
  free energy    TOTEN  =       -16.52393540 eV

  energy without entropy =      -16.52393540  energy(sigma->0) =      -16.52393540


--------------------------------------------------------------------------------------------------------




--------------------------------------- Iteration      1(  14)  ---------------------------------------


    POTLOK:  cpu time    0.3358: real time    0.3396
    SETDIJ:  cpu time    0.0093: real time    0.0092
     EDDAV:  cpu time    4.7170: real time    4.7246
       DOS:  cpu time    0.0008: real time    0.0008
    CHARGE:  cpu time    0.4061: real time    0.4061
    MIXING:  cpu time    0.0121: real time    0.0121
    --------------------------------------------
      LOOP:  cpu time    5.4809: real time    5.4903

 eigenvalue-minimisations  :  3344
 total energy-change (2. order) :-0.2798768E-04  (-0.1739981E-05)
 number of electron      34.0000002 magnetization 
 augmentation part        3.8366986 magnetization 

 DIPCOR: dipole corrections for dipol
 direction  3 min pos   232,
 dipolmoment           0.000000      0.000000     -0.035868 electrons x Angstroem
 Tr[quadrupol]       -78.905834

 energy correction for charged system         0.000000 eV
 dipol+quadrupol energy correction           -0.000513 eV
 added-field ion interaction         -0.978688 eV  (added to PSCEN)


 Broyden mixing:
  rms(total) = 0.19822E-02    rms(broyden)= 0.19822E-02
  rms(prec ) = 0.21498E-02
  weight for this iteration     100.00

 eigenvalues of (default mixing * dielectric matrix)
  average eigenvalue GAMMA=   1.2524
  2.4306  2.4306  1.3379  1.3379  0.3843  0.9169  0.9169  0.9052  0.6117

 Free energy of the ion-electron system (eV)
  ---------------------------------------------------
  alpha Z        PSCENC =        41.80994841
  Ewald energy   TEWEN  =      6081.87162191
  -Hartree energ DENC   =     -8260.64058214
  -exchange      EXHF   =         0.00000000
  -V(xc)+E(xc)   XCENC  =        37.08909339
  PAW double counting   =      2785.26148424    -2728.82577435
  entropy T*S    EENTRO =        -0.00000000
  eigenvalues    EBANDS =      -209.47625495
  atomic energy  EATOM  =      2236.38650011
  Solvation  Ediel_sol  =         0.00000000
  ---------------------------------------------------
  free energy    TOTEN  =       -16.52396338 eV

  energy without entropy =      -16.52396338  energy(sigma->0) =      -16.52396338


--------------------------------------------------------------------------------------------------------




--------------------------------------- Iteration      1(  15)  ---------------------------------------


    POTLOK:  cpu time    0.2980: real time    0.2981
    SETDIJ:  cpu time    0.0070: real time    0.0070
     EDDAV:  cpu time    4.9622: real time    4.9625
       DOS:  cpu time    0.0007: real time    0.0007
    CHARGE:  cpu time    0.3786: real time    0.3786
    MIXING:  cpu time    0.0124: real time    0.0124
    --------------------------------------------
      LOOP:  cpu time    5.6589: real time    5.6594

 eigenvalue-minimisations  :  3374
 total energy-change (2. order) :-0.9890813E-05  (-0.1658866E-06)
 number of electron      34.0000002 magnetization 
 augmentation part        3.8368599 magnetization 

 DIPCOR: dipole corrections for dipol
 direction  3 min pos   232,
 dipolmoment           0.000000      0.000000     -0.035797 electrons x Angstroem
 Tr[quadrupol]       -78.906840

 energy correction for charged system         0.000000 eV
 dipol+quadrupol energy correction           -0.000511 eV
 added-field ion interaction         -0.976749 eV  (added to PSCEN)


 Broyden mixing:
  rms(total) = 0.11478E-02    rms(broyden)= 0.11478E-02
  rms(prec ) = 0.13225E-02
  weight for this iteration     100.00

 eigenvalues of (default mixing * dielectric matrix)
  average eigenvalue GAMMA=   1.3666
  2.8165  2.4118  2.0372  1.4272  0.3842  1.0730  1.0730  0.8399  0.8016  0.8016

 Free energy of the ion-electron system (eV)
  ---------------------------------------------------
  alpha Z        PSCENC =        41.81188985
  Ewald energy   TEWEN  =      6081.87162191
  -Hartree energ DENC   =     -8260.67379692
  -exchange      EXHF   =         0.00000000
  -V(xc)+E(xc)   XCENC  =        37.08906648
  PAW double counting   =      2785.68543726    -2729.25208133
  entropy T*S    EENTRO =        -0.00000000
  eigenvalues    EBANDS =      -209.44261061
  atomic energy  EATOM  =      2236.38650011
  Solvation  Ediel_sol  =         0.00000000
  ---------------------------------------------------
  free energy    TOTEN  =       -16.52397327 eV

  energy without entropy =      -16.52397327  energy(sigma->0) =      -16.52397327


--------------------------------------------------------------------------------------------------------




--------------------------------------- Iteration      1(  16)  ---------------------------------------


    POTLOK:  cpu time    0.3144: real time    0.3145
    SETDIJ:  cpu time    0.0081: real time    0.0081
     EDDAV:  cpu time    4.2696: real time    4.2698
       DOS:  cpu time    0.0005: real time    0.0005
    CHARGE:  cpu time    0.3561: real time    0.3565
    MIXING:  cpu time    0.0121: real time    0.0121
    --------------------------------------------
      LOOP:  cpu time    4.9608: real time    4.9615

 eigenvalue-minimisations  :  3158
 total energy-change (2. order) :-0.4219554E-04  (-0.1018406E-05)
 number of electron      34.0000002 magnetization 
 augmentation part        3.8368996 magnetization 

 DIPCOR: dipole corrections for dipol
 direction  3 min pos   232,
 dipolmoment           0.000000      0.000000     -0.035077 electrons x Angstroem
 Tr[quadrupol]       -78.913177

 energy correction for charged system         0.000000 eV
 dipol+quadrupol energy correction           -0.000491 eV
 added-field ion interaction         -0.957111 eV  (added to PSCEN)


 Broyden mixing:
  rms(total) = 0.44385E-03    rms(broyden)= 0.44383E-03
  rms(prec ) = 0.57012E-03
  weight for this iteration     100.00

 eigenvalues of (default mixing * dielectric matrix)
  average eigenvalue GAMMA=   1.3018
  2.6819  2.4059  2.0621  1.5744  1.0580  1.0580  0.3842  0.8330  0.8330  0.8313
  0.5978

 Free energy of the ion-electron system (eV)
  ---------------------------------------------------
  alpha Z        PSCENC =        41.83154762
  Ewald energy   TEWEN  =      6081.87162191
  -Hartree energ DENC   =     -8260.90081632
  -exchange      EXHF   =         0.00000000
  -V(xc)+E(xc)   XCENC  =        37.09090176
  PAW double counting   =      2785.17105612    -2728.73751270
  entropy T*S    EENTRO =        -0.00000000
  eigenvalues    EBANDS =      -209.23731396
  atomic energy  EATOM  =      2236.38650011
  Solvation  Ediel_sol  =         0.00000000
  ---------------------------------------------------
  free energy    TOTEN  =       -16.52401547 eV

  energy without entropy =      -16.52401547  energy(sigma->0) =      -16.52401547


--------------------------------------------------------------------------------------------------------




--------------------------------------- Iteration      1(  17)  ---------------------------------------


    POTLOK:  cpu time    0.3210: real time    0.3211
    SETDIJ:  cpu time    0.0094: real time    0.0094
     EDDAV:  cpu time    4.9462: real time    4.9468
       DOS:  cpu time    0.0007: real time    0.0007
    CHARGE:  cpu time    0.3747: real time    0.3747
    MIXING:  cpu time    0.0127: real time    0.0127
    --------------------------------------------
      LOOP:  cpu time    5.6647: real time    5.6654

 eigenvalue-minimisations  :  3638
 total energy-change (2. order) :-0.7712982E-05  (-0.4753256E-07)
 number of electron      34.0000002 magnetization 
 augmentation part        3.8368918 magnetization 

 DIPCOR: dipole corrections for dipol
 direction  3 min pos   232,
 dipolmoment           0.000000      0.000000     -0.035057 electrons x Angstroem
 Tr[quadrupol]       -78.914071

 energy correction for charged system         0.000000 eV
 dipol+quadrupol energy correction           -0.000490 eV
[...]
  band No.  band energies     occupation 
      1     -17.3564      2.00000
      2     -17.2235      2.00000
      3      -7.7240      2.00000
      4      -7.0386      2.00000
      5      -6.7165      2.00000
      6      -6.6116      2.00000
      7      -6.2572      2.00000
      8      -5.4362      2.00000
      9      -5.1435      2.00000
     10      -4.6672      2.00000
     11      -4.4594      2.00000
     12      -3.0810      2.00000
     13      -2.8651      2.00000
     14      -2.8574      2.00000
     15      -2.2450      2.00000
     16      -2.1876      2.00000
     17      -1.9325      2.00000
     18      -0.1395      0.00000
     19       0.3472      0.00000
     20       3.7003      0.00000
     21       4.0854      0.00000
     22       4.5954      0.00000

 k-point    52 :       0.3750   -0.2500    0.0000
  band No.  band energies     occupation 
      1     -17.2422      2.00000
      2     -17.0814      2.00000
      3      -7.6626      2.00000
      4      -7.1401      2.00000
      5      -6.6336      2.00000
      6      -6.4894      2.00000
      7      -6.2653      2.00000
      8      -5.6854      2.00000
      9      -5.2000      2.00000
     10      -4.9509      2.00000
     11      -3.9810      2.00000
     12      -3.5720      2.00000
     13      -2.9493      2.00000
     14      -2.6430      2.00000
     15      -2.3972      2.00000
     16      -2.3500      2.00000
     17      -2.0805      2.00000
     18      -0.2999      0.00000
     19       0.9998      0.00000
     20       3.5015      0.00000
     21       4.6368      0.00000
     22       5.0600      0.00000

 k-point    53 :       0.5000   -0.2500    0.0000
  band No.  band energies     occupation 
      1     -17.1297      2.00000
      2     -16.9270      2.00000
      3      -7.5139      2.00000
      4      -7.0657      2.00000
      5      -6.9819      2.00000
      6      -6.3022      2.00000
      7      -6.1640      2.00000
      8      -5.8515      2.00000
      9      -5.3658      2.00000
     10      -5.1243      2.00000
     11      -3.7868      2.00000
     12      -3.3767      2.00000
     13      -3.1429      2.00000
     14      -2.9364      2.00000
     15      -2.8713      2.00000
     16      -2.2840      2.00000
     17      -1.9725      2.00000
     18      -0.1999      0.00000
     19       1.3778      0.00000
     20       3.1575      0.00000
     21       4.6663      0.00000
     22       5.6046      0.00000

 k-point    54 :      -0.3750   -0.2500    0.0000
  band No.  band energies     occupation 
      1     -17.0822      2.00000
      2     -16.8592      2.00000
      3      -7.2745      2.00000
      4      -7.2542      2.00000
      5      -6.8535      2.00000
      6      -6.5986      2.00000
      7      -6.3556      2.00000
      8      -5.6801      2.00000
      9      -5.3544      2.00000
     10      -4.7657      2.00000
     11      -4.2168      2.00000
     12      -3.5918      2.00000
     13      -3.2826      2.00000
     14      -2.9232      2.00000
     15      -2.5557      2.00000
     16      -2.2749      2.00000
     17      -2.0289      2.00000
     18      -0.0302      0.00000
     19       1.5461      0.00000
     20       2.4797      0.00000
     21       5.1782      0.00000
     22       5.5506      0.00000

 k-point    55 :      -0.2500   -0.2500    0.0000
  band No.  band energies     occupation 
      1     -17.1276      2.00000
      2     -16.9240      2.00000
      3      -7.5206      2.00000
      4      -7.0718      2.00000
      5      -6.9806      2.00000
      6      -6.3059      2.00000
      7      -6.1680      2.00000
      8      -5.8484      2.00000
      9      -5.3628      2.00000
     10      -5.1238      2.00000
     11      -3.7806      2.00000
     12      -3.3811      2.00000
     13      -3.1269      2.00000
     14      -2.9333      2.00000
     15      -2.8626      2.00000
     16      -2.2892      2.00000
     17      -1.9723      2.00000
     18      -0.2003      0.00000
     19       1.3832      0.00000
     20       3.1553      0.00000
     21       4.6544      0.00000
     22       5.5940      0.00000

 k-point    56 :      -0.1250   -0.2500    0.0000
  band No.  band energies     occupation 
      1     -17.2393      2.00000
      2     -17.0774      2.00000
      3      -7.6614      2.00000
      4      -7.1382      2.00000
      5      -6.6403      2.00000
      6      -6.4965      2.00000
      7      -6.2687      2.00000
      8      -5.6934      2.00000
      9      -5.2000      2.00000
     10      -4.9429      2.00000
     11      -3.9831      2.00000
     12      -3.5665      2.00000
     13      -2.9458      2.00000
     14      -2.6325      2.00000
     15      -2.3932      2.00000
     16      -2.3495      2.00000
     17      -2.0817      2.00000
     18      -0.3001      0.00000
     19       1.0101      0.00000
     20       3.5030      0.00000
     21       4.6398      0.00000
     22       5.0614      0.00000

 k-point    57 :       0.0000   -0.1250    0.0000
  band No.  band energies     occupation 
      1     -17.5260      2.00000
      2     -17.3946      2.00000
      3      -7.9583      2.00000
      4      -6.9729      2.00000
      5      -6.8216      2.00000
      6      -6.6177      2.00000
      7      -6.0879      2.00000
      8      -5.6242      2.00000
      9      -4.7636      2.00000
     10      -4.6404      2.00000
     11      -3.9873      2.00000
     12      -2.9311      2.00000
     13      -2.5582      2.00000
     14      -2.3949      2.00000
     15      -2.3337      2.00000
     16      -2.2740      2.00000
     17      -2.0365      2.00000
     18      -0.2557      0.00000
     19      -0.1556      0.00000
     20       2.9145      0.00000
     21       3.6164      0.00000
     22       4.2114      0.00000

 k-point    58 :       0.1250   -0.1250    0.0000
  band No.  band energies     occupation 
      1     -17.5266      2.00000
      2     -17.3953      2.00000
      3      -7.9600      2.00000
      4      -6.9765      2.00000
      5      -6.8149      2.00000
      6      -6.6185      2.00000
      7      -6.0986      2.00000
      8      -5.6093      2.00000
      9      -4.7739      2.00000
     10      -4.6255      2.00000
     11      -3.9933      2.00000
     12      -2.9342      2.00000
     13      -2.5516      2.00000
     14      -2.3962      2.00000
     15      -2.3272      2.00000
     16      -2.2770      2.00000
     17      -2.0463      2.00000
     18      -0.2537      0.00000
     19      -0.1551      0.00000
     20       2.9124      0.00000
     21       3.6149      0.00000
     22       4.2098      0.00000

 k-point    59 :       0.2500   -0.1250    0.0000
  band No.  band energies     occupation 
      1     -17.4033      2.00000
      2     -17.2755      2.00000
      3      -7.7437      2.00000
      4      -7.0017      2.00000
      5      -6.8692      2.00000
      6      -6.3883      2.00000
      7      -6.2467      2.00000
      8      -5.6470      2.00000
      9      -4.9814      2.00000
     10      -4.8598      2.00000
     11      -4.3021      2.00000
     12      -3.0279      2.00000
     13      -2.7325      2.00000
     14      -2.4840      2.00000
     15      -2.3671      2.00000
     16      -2.2919      2.00000
     17      -1.9498      2.00000
     18      -0.2592      0.00000
     19       0.2061      0.00000
     20       3.7336      0.00000
     21       4.1097      0.00000
     22       4.5892      0.00000

 k-point    60 :       0.3750   -0.1250    0.0000
  band No.  band energies     occupation 
      1     -17.2395      2.00000
      2     -17.0776      2.00000
      3      -7.6541      2.00000
      4      -7.1351      2.00000
      5      -6.6384      2.00000
      6      -6.4939      2.00000
      7      -6.2727      2.00000
      8      -5.7021      2.00000
      9      -5.2071      2.00000
     10      -4.9383      2.00000
     11      -3.9830      2.00000
     12      -3.5666      2.00000
     13      -2.9570      2.00000
     14      -2.6310      2.00000
     15      -2.3993      2.00000
     16      -2.3459      2.00000
     17      -2.0793      2.00000
     18      -0.2942      0.00000
     19       1.0052      0.00000
     20       3.5172      0.00000
     21       4.6323      0.00000
     22       5.0585      0.00000

 k-point    61 :       0.5000   -0.1250    0.0000
  band No.  band energies     occupation 
      1     -17.1256      2.00000
      2     -16.9216      2.00000
      3      -7.6943      2.00000
      4      -7.3923      2.00000
      5      -6.6203      2.00000
      6      -6.4156      2.00000
      7      -6.2035      2.00000
      8      -5.8918      2.00000
      9      -5.0697      2.00000
     10      -4.6584      2.00000
     11      -3.7893      2.00000
     12      -3.3363      2.00000
     13      -3.1895      2.00000
     14      -2.9283      2.00000
     15      -2.8060      2.00000
     16      -2.4172      2.00000
     17      -2.2645      2.00000
     18      -0.1897      0.00000
     19       1.3454      0.00000
     20       2.7503      0.00000
     21       4.9103      0.00000
     22       5.3111      0.00000

 k-point    62 :      -0.3750   -0.1250    0.0000
  band No.  band energies     occupation 
      1     -17.1250      2.00000
      2     -16.9207      2.00000
      3      -7.6973      2.00000
      4      -7.3949      2.00000
      5      -6.6176      2.00000
      6      -6.4180      2.00000
      7      -6.2050      2.00000
      8      -5.8901      2.00000
      9      -5.0694      2.00000
     10      -4.6573      2.00000
     11      -3.7921      2.00000
     12      -3.3340      2.00000
     13      -3.1802      2.00000
     14      -2.9194      2.00000
     15      -2.8077      2.00000
     16      -2.4235      2.00000
     17      -2.2650      2.00000
     18      -0.1910      0.00000
     19       1.3456      0.00000
     20       2.7498      0.00000
     21       4.9043      0.00000
     22       5.3052      0.00000

 k-point    63 :      -0.2500   -0.1250    0.0000
  band No.  band energies     occupation 
      1     -17.2380      2.00000
      2     -17.0756      2.00000
      3      -7.6573      2.00000
      4      -7.1357      2.00000
      5      -6.6427      2.00000
      6      -6.4987      2.00000
      7      -6.2722      2.00000
      8      -5.7014      2.00000
      9      -5.2036      2.00000
     10      -4.9369      2.00000
     11      -3.9841      2.00000
     12      -3.5638      2.00000
     13      -2.9494      2.00000
     14      -2.6269      2.00000
     15      -2.3942      2.00000
     16      -2.3475      2.00000
     17      -2.0811      2.00000
     18      -0.2974      0.00000
     19       1.0127      0.00000
     20       3.5104      0.00000
     21       4.6376      0.00000
     22       5.0606      0.00000

 k-point    64 :      -0.1250   -0.1250    0.0000
  band No.  band energies     occupation 
      1     -17.4018      2.00000
      2     -17.2738      2.00000
      3      -7.7410      2.00000
      4      -7.0013      2.00000
      5      -6.8702      2.00000
      6      -6.3914      2.00000
      7      -6.2489      2.00000
      8      -5.6541      2.00000
      9      -4.9748      2.00000
     10      -4.8686      2.00000
     11      -4.2953      2.00000
     12      -3.0310      2.00000
     13      -2.7292      2.00000
     14      -2.4841      2.00000
     15      -2.3650      2.00000
     16      -2.2895      2.00000
     17      -1.9492      2.00000
     18      -0.2589      0.00000
     19       0.2112      0.00000
     20       3.7356      0.00000
     21       4.1113      0.00000
     22       4.5920      0.00000


--------------------------------------------------------------------------------------------------------


 soft charge-density along one line, spin component           1
         0         1         2         3         4         5         6         7         8         9
 total charge-density along one line
 
 pseudopotential strength for first ion, spin component:           1
 49.259  51.698  -0.000   0.036   0.000  -0.000   0.044   0.000
 51.698  54.260  -0.000   0.038   0.000  -0.000   0.047   0.000
 -0.000  -0.000   9.298  -0.000  -0.000  11.525  -0.000  -0.000
  0.036   0.038  -0.000   9.296   0.000  -0.000  11.523   0.000
  0.000   0.000  -0.000   0.000   9.298  -0.000   0.000  11.525
 -0.000  -0.000  11.525  -0.000  -0.000  14.301  -0.000  -0.000
  0.044   0.047  -0.000  11.523   0.000  -0.000  14.299   0.000
  0.000   0.000  -0.000   0.000  11.525  -0.000   0.000  14.301
 total augmentation occupancy for first ion, spin component:           1
  8.749  -6.731   0.000  -3.016  -0.017  -0.000   1.293   0.006
 -6.731   6.664  -0.000   2.837   0.017   0.000  -1.284  -0.006
  0.000  -0.000   3.450  -0.000  -0.002  -0.993   0.000   0.001
 -3.016   2.837  -0.000   3.238   0.005   0.000  -0.865  -0.003
 -0.017   0.017  -0.002   0.005   3.450   0.001  -0.003  -0.993
 -0.000   0.000  -0.993   0.000   0.001   0.455  -0.000  -0.000
  1.293  -1.284   0.000  -0.865  -0.003  -0.000   0.422   0.001
  0.006  -0.006   0.001  -0.003  -0.993  -0.000   0.001   0.455


------------------------ aborting loop because EDIFF is reached ----------------------------------------


    CHARGE:  cpu time    0.3622: real time    0.3622
    FORLOC:  cpu time    0.0298: real time    0.0298
    FORNL :  cpu time    0.5078: real time    0.5078
    STRESS:  cpu time    3.1474: real time    3.1477
    FORCOR:  cpu time    0.3272: real time    0.3272
    FORHAR:  cpu time    0.0764: real time    0.0764
    MIXING:  cpu time    0.0131: real time    0.0131
    OFIELD:  cpu time    0.0001: real time    0.0012

 ---------------------------------------------------------------------------------------------

         DFTD3 V3.0 Rev 1        
 Edisp (eV)   -1.24307

 E6    (eV) :    -0.3606
 E8    (eV) :    -0.8825
 % E8        : 70.99
    FORVDW:  cpu time    0.0211: real time    0.0220

  FORCE on cell =-STRESS in cart. coord.  units (eV):
  Direction    XX          YY          ZZ          XY          YZ          ZX
  --------------------------------------------------------------------------------------
  Alpha Z    42.78915    42.78915    42.78915
  Ewald    7527.34413  7527.34534 -9046.69461    -0.57566    -0.04453     1.88267
  Hartree  8005.85986  8005.86366 -7823.52099    -0.09911    -0.01719     0.70011
  E(xc)    -141.14074  -141.14075  -141.57456    -0.00940    -0.00013     0.00522
  Local  -16161.25303-16161.26019 16235.66462     0.45124     0.05814    -2.43107
  n-local   142.76748   142.76715   144.32145     0.05888     0.00017     0.00339
  augment    78.94003    78.94036    79.60458     0.03920     0.00025    -0.01295
  Kinetic   506.23997   506.24222   509.59928     0.24829     0.00296    -0.13943
  Fock        0.00000     0.00000     0.00000     0.00000     0.00000     0.00000
  vdW        -0.75708    -0.75705    -0.25541     0.00985     0.00012    -0.00431
  -------------------------------------------------------------------------------------
  Total       0.78976     0.78990    -0.06649     0.12330    -0.00020     0.00363
  in kB       5.57800     5.57902    -0.46958     0.87085    -0.00141     0.02561
  external pressure =        3.56 kB  Pullay stress =        0.00 kB


 VOLUME and BASIS-vectors are now :
 -----------------------------------------------------------------------------
  energy-cutoff  :      400.00
  volume of cell :      226.84
      direct lattice vectors                 reciprocal lattice vectors
     3.618972729 -0.036629028  0.000000000     0.277924242  0.158351263  0.000000000
    -1.796041249  3.152253996  0.000000000     0.003229465  0.319073353  0.000000000
     0.000000000  0.000000000 20.000000000     0.000000000  0.000000000  0.050000000

  length of vectors
     3.619158093  3.628011773 20.000000000     0.319870297  0.319089696  0.050000000


 FORCES acting on ions
    electron-ion (+dipol)            ewald-force                    non-local-force                 convergence-correction
 -----------------------------------------------------------------------------------------------
   0.500E+00 -.121E-01 0.100E+04   -.532E+00 0.130E-01 -.101E+04   0.266E-01 -.662E-03 0.515E+01   0.298E-02 -.138E-03 -.122E-03
   -.302E+00 0.650E-02 -.101E+04   0.309E+00 -.662E-02 0.101E+04   -.454E-02 0.436E-04 -.262E+01   -.103E-02 0.436E-04 0.591E-04
   -.196E+00 0.558E-02 -.573E+03   0.157E+00 -.471E-02 0.567E+03   0.375E-01 -.852E-03 0.662E+01   0.204E-02 -.716E-04 0.539E-04
   -.462E-01 0.123E-02 0.579E+03   0.661E-01 -.165E-02 -.572E+03   -.188E-01 0.417E-03 -.645E+01   -.176E-02 0.355E-04 0.289E-03
 -----------------------------------------------------------------------------------------------
   -.430E-01 0.120E-02 -.271E+01   -.121E-13 -.898E-14 -.114E-12   0.408E-01 -.105E-02 0.271E+01   0.223E-02 -.130E-03 0.280E-03
 
 
 POSITION                                       TOTAL-FORCE (eV/Angst)
 -----------------------------------------------------------------------------------
     -0.90441      1.57616      3.36079        -0.000646      0.000034      0.000478
     -0.89021      1.57582      7.72537         0.000539     -0.000013     -0.000426
      0.90895      0.51300      6.20992         0.000161     -0.000041     -0.000027
      0.91331      2.60240      4.70859        -0.000054      0.000020     -0.000025
 -----------------------------------------------------------------------------------
    total drift:                                0.000018      0.000011      0.000335


--------------------------------------------------------------------------------------------------------



  FREE ENERGIE OF THE ION-ELECTRON SYSTEM (eV)
  ---------------------------------------------------
  free  energy   TOTEN  =       -17.77722462 eV

  energy  without entropy=      -17.77722462  energy(sigma->0) =      -17.77722462
 
 d Force = 0.8689123E-06[ 0.379E-06, 0.136E-05]  d Energy = 0.1186263E-06 0.750E-06
 d Force =-0.2643960E-01[-0.264E-01,-0.264E-01]  d Ewald  =-0.2644039E-01 0.790E-06


--------------------------------------------------------------------------------------------------------


    POTLOK:  cpu time    0.3399: real time    0.3400


--------------------------------------------------------------------------------------------------------


 Quasi-Newton relaxation of ions (Broydens 2nd method)
  g(Force)  = 0.555E-07   g(Stress)= 0.000E+00

 retain information from N=  2 steps
 eigenvalues of (default step * inverse Hessian matrix)
  average eigenvalue of G=   5.6000
 eigenvalue spectrum of G is  5.6000  5.6000


--------------------------------------------------------------------------------------------------------


  
 reached required accuracy - stopping structural energy minimisation
 writing wavefunctions
     LOOP+:  cpu time   20.6739: real time   20.6907
    4ORBIT:  cpu time    0.0000: real time    0.0000

 total amount of memory used by VASP MPI-rank0   227505. kBytes
=======================================================================

   base      :      30000. kBytes
   nonl-proj :     114893. kBytes
   fftplans  :      11208. kBytes
   grid      :      23989. kBytes
   one-center:         62. kBytes
   wavefun   :      47353. kBytes
 
  
  
 General timing and accounting informations for this job:
 ========================================================
  
                  Total CPU time used (sec):      439.656
                            User time (sec):      434.301
                          System time (sec):        5.355
                         Elapsed time (sec):      442.552
  
                   Maximum memory used (kb):      368480.
                   Average memory used (kb):           0.
  
                          Minor page faults:       265929
                          Major page faults:            0
                 Voluntary context switches:           85
