 running on    8 total cores
 distrk:  each k-point on    2 cores,    4 groups
 distr:  one band on    1 cores,    2 groups
 using from now: INCAR     
 vasp.5.4.4.16052018 (build Dec 07 2020 11:33:42) complex                       
  
 POSCAR found type information on POSCAR  Cl Br Pt
 POSCAR found :  3 types and       4 ions
 scaLAPACK will be used

 ----------------------------------------------------------------------------- 
|                                                                             |
|           W    W    AA    RRRRR   N    N  II  N    N   GGGG   !!!           |
|           W    W   A  A   R    R  NN   N  II  NN   N  G    G  !!!           |
|           W    W  A    A  R    R  N N  N  II  N N  N  G       !!!           |
|           W WW W  AAAAAA  RRRRR   N  N N  II  N  N N  G  GGG   !            |
|           WW  WW  A    A  R   R   N   NN  II  N   NN  G    G                |
|           W    W  A    A  R    R  N    N  II  N    N   GGGG   !!!           |
|                                                                             |
|      For optimal performance we recommend to set                            |
|        NCORE= 4 - approx SQRT( number of cores)                             |
|      NCORE specifies how many cores store one orbital (NPAR=cpu/NCORE).     |
|      This setting can  greatly improve the performance of VASP for DFT.     |
|      The default,   NCORE=1            might be grossly inefficient         |
|      on modern multi-core architectures or massively parallel machines.     |
|      Do your own testing !!!!                                               |
|      Unfortunately you need to use the default for GW and RPA calculations. |
|      (for HF NCORE is supported but not extensively tested yet)             |
|                                                                             |
 ----------------------------------------------------------------------------- 


 ----------------------------------------------------------------------------- 
|                                                                             |
|           W    W    AA    RRRRR   N    N  II  N    N   GGGG   !!!           |
|           W    W   A  A   R    R  NN   N  II  NN   N  G    G  !!!           |
|           W    W  A    A  R    R  N N  N  II  N N  N  G       !!!           |
|           W WW W  AAAAAA  RRRRR   N  N N  II  N  N N  G  GGG   !            |
|           WW  WW  A    A  R   R   N   NN  II  N   NN  G    G                |
|           W    W  A    A  R    R  N    N  II  N    N   GGGG   !!!           |
|                                                                             |
|      You have enabled k-point parallelism (KPAR>1).                         |
|      This developmental code was originally  written by Paul Kent at ORNL,  |
|      and carefully double checked in Vienna.                                |
|      GW as well as linear response parallelism added by Martijn Marsman     |
|      and Georg Kresse.                                                      |
|      Carefully verify results versus KPAR=1.                                |
|      Report problems to Paul Kent and Vienna.                               |
|                                                                             |
 ----------------------------------------------------------------------------- 

 LDA part: xc-table for Pade appr. of Perdew
 POSCAR, INCAR and KPOINTS ok, starting setup
 FFT: planning ...
 WAVECAR not read
 entering main loop
       N       E                     dE             d eps       ncg     rms          rms(c)
DAV:   1     0.219608640588E+03    0.21961E+03   -0.10153E+04   712   0.797E+02
DAV:   2     0.167030970490E+01   -0.21794E+03   -0.21034E+03  1070   0.203E+02
DAV:   3    -0.170920803728E+02   -0.18762E+02   -0.18519E+02   836   0.685E+01
DAV:   4    -0.174655489116E+02   -0.37347E+00   -0.37304E+00   854   0.110E+01
DAV:   5    -0.174749026494E+02   -0.93537E-02   -0.93517E-02   862   0.167E+00    0.156E+01
DAV:   6    -0.166158277550E+02    0.85907E+00   -0.23593E+00   860   0.136E+01    0.877E+00
DAV:   7    -0.166228479242E+02   -0.70202E-02   -0.55535E-01   800   0.774E+00    0.318E+00
DAV:   8    -0.166820372318E+02   -0.59189E-01   -0.43990E-01   836   0.958E+00    0.258E+00
DAV:   9    -0.165671737785E+02    0.11486E+00   -0.16378E-01   812   0.568E+00    0.419E-01
DAV:  10    -0.165663697567E+02    0.80402E-03   -0.25649E-02   794   0.101E+00    0.141E-01
DAV:  11    -0.165663067823E+02    0.62974E-04   -0.19855E-03   836   0.376E-01    0.827E-02
DAV:  12    -0.165663357896E+02   -0.29007E-04   -0.17916E-04   802   0.953E-02
   1 F= -.17798762E+02 E0= -.17798762E+02  d E =-.177988E+02
stress tensor set to zero in row and column 2
stress tensor set to zero in row and column 3
 BRION: g(F)=  0.571E-03 g(S)=  0.803E-03
 bond charge predicted
       N       E                     dE             d eps       ncg     rms          rms(c)
DAV:   1    -0.165669169544E+02   -0.61017E-03   -0.22065E-01   704   0.288E+00    0.372E-01
DAV:   2    -0.165645733441E+02    0.23436E-02   -0.92750E-03   866   0.743E-01    0.168E-01
DAV:   3    -0.165642332942E+02    0.34005E-03   -0.89888E-04   836   0.322E-01    0.116E-01
DAV:   4    -0.165641795541E+02    0.53740E-04   -0.71562E-04   806   0.373E-01    0.941E-02
DAV:   5    -0.165640996771E+02    0.79877E-04   -0.26176E-04   794   0.185E-01    0.336E-02
DAV:   6    -0.165641146714E+02   -0.14994E-04   -0.43193E-05   556   0.423E-02
   2 F= -.17799302E+02 E0= -.17799302E+02  d E =-.540168E-03
stress tensor set to zero in row and column 2
stress tensor set to zero in row and column 3
 BRION: g(F)=  0.281E-03 g(S)=  0.287E-03 retain N=  1 mean eig= 0.63
 eig:   0.626
 bond charge predicted
       N       E                     dE             d eps       ncg     rms          rms(c)
DAV:   1    -0.165656765314E+02   -0.15769E-02   -0.34939E-02   704   0.114E+00    0.135E-01
DAV:   2    -0.165653449090E+02    0.33162E-03   -0.15092E-03   866   0.296E-01    0.582E-02
DAV:   3    -0.165652950217E+02    0.49887E-04   -0.93557E-05   610   0.919E-02
   3 F= -.17799557E+02 E0= -.17799557E+02  d E =-.255207E-03
stress tensor set to zero in row and column 2
stress tensor set to zero in row and column 3
 BRION: g(F)=  0.115E-03 g(S)=  0.283E-03 retain N=  2 mean eig= 2.96
 eig:   0.532  5.385
 reached required accuracy - stopping structural energy minimisation
 writing wavefunctions
