 running on    8 total cores
 distrk:  each k-point on    2 cores,    4 groups
 distr:  one band on    1 cores,    2 groups
 using from now: INCAR     
 vasp.5.4.4.16052018 (build Dec 07 2020 11:33:42) complex                       
  
 POSCAR found type information on POSCAR  Cl Br Pt
 POSCAR found :  3 types and       4 ions
 scaLAPACK will be used

 ----------------------------------------------------------------------------- 
|                                                                             |
|           W    W    AA    RRRRR   N    N  II  N    N   GGGG   !!!           |
|           W    W   A  A   R    R  NN   N  II  NN   N  G    G  !!!           |
|           W    W  A    A  R    R  N N  N  II  N N  N  G       !!!           |
|           W WW W  AAAAAA  RRRRR   N  N N  II  N  N N  G  GGG   !            |
|           WW  WW  A    A  R   R   N   NN  II  N   NN  G    G                |
|           W    W  A    A  R    R  N    N  II  N    N   GGGG   !!!           |
|                                                                             |
|      For optimal performance we recommend to set                            |
|        NCORE= 4 - approx SQRT( number of cores)                             |
|      NCORE specifies how many cores store one orbital (NPAR=cpu/NCORE).     |
|      This setting can  greatly improve the performance of VASP for DFT.     |
|      The default,   NCORE=1            might be grossly inefficient         |
|      on modern multi-core architectures or massively parallel machines.     |
|      Do your own testing !!!!                                               |
|      Unfortunately you need to use the default for GW and RPA calculations. |
|      (for HF NCORE is supported but not extensively tested yet)             |
|                                                                             |
 ----------------------------------------------------------------------------- 


 ----------------------------------------------------------------------------- 
|                                                                             |
|           W    W    AA    RRRRR   N    N  II  N    N   GGGG   !!!           |
|           W    W   A  A   R    R  NN   N  II  NN   N  G    G  !!!           |
|           W    W  A    A  R    R  N N  N  II  N N  N  G       !!!           |
|           W WW W  AAAAAA  RRRRR   N  N N  II  N  N N  G  GGG   !            |
|           WW  WW  A    A  R   R   N   NN  II  N   NN  G    G                |
|           W    W  A    A  R    R  N    N  II  N    N   GGGG   !!!           |
|                                                                             |
|      You have enabled k-point parallelism (KPAR>1).                         |
|      This developmental code was originally  written by Paul Kent at ORNL,  |
|      and carefully double checked in Vienna.                                |
|      GW as well as linear response parallelism added by Martijn Marsman     |
|      and Georg Kresse.                                                      |
|      Carefully verify results versus KPAR=1.                                |
|      Report problems to Paul Kent and Vienna.                               |
|                                                                             |
 ----------------------------------------------------------------------------- 

 LDA part: xc-table for Pade appr. of Perdew
 POSCAR, INCAR and KPOINTS ok, starting setup
 FFT: planning ...
 WAVECAR not read
 entering main loop
       N       E                     dE             d eps       ncg     rms          rms(c)
DAV:   1     0.245159510426E+03    0.24516E+03   -0.11704E+04  2816   0.100E+03
DAV:   2     0.523785717506E+01   -0.23992E+03   -0.22813E+03  4148   0.220E+02
DAV:   3    -0.169284569614E+02   -0.22166E+02   -0.21754E+02  3370   0.756E+01
DAV:   4    -0.174450753428E+02   -0.51662E+00   -0.51466E+00  3556   0.129E+01
DAV:   5    -0.174574325421E+02   -0.12357E-01   -0.12355E-01  3396   0.200E+00    0.162E+01
DAV:   6    -0.166009424211E+02    0.85649E+00   -0.23305E+00  3454   0.136E+01    0.905E+00
DAV:   7    -0.165960836617E+02    0.48588E-02   -0.57945E-01  3314   0.754E+00    0.308E+00
DAV:   8    -0.166463501573E+02   -0.50266E-01   -0.43885E-01  3488   0.937E+00    0.248E+00
DAV:   9    -0.165456702378E+02    0.10068E+00   -0.15823E-01  3434   0.565E+00    0.420E-01
DAV:  10    -0.165440533947E+02    0.16168E-02   -0.24482E-02  3198   0.106E+00    0.158E-01
DAV:  11    -0.165440232442E+02    0.30150E-04   -0.22882E-03  3380   0.369E-01    0.991E-02
DAV:  12    -0.165439783881E+02    0.44856E-04   -0.13494E-04  4400   0.990E-02    0.549E-02
DAV:  13    -0.165439945992E+02   -0.16211E-04   -0.17558E-04  3860   0.133E-01    0.232E-02
DAV:  14    -0.165440106207E+02   -0.16021E-04   -0.69415E-05  3272   0.651E-02    0.247E-02
DAV:  15    -0.165440212009E+02   -0.10580E-04   -0.92042E-06  3558   0.182E-02    0.153E-02
DAV:  16    -0.165440426157E+02   -0.21415E-04   -0.39221E-06  3194   0.127E-02    0.527E-03
DAV:  17    -0.165440620061E+02   -0.19390E-04   -0.20149E-06  3410   0.105E-02    0.276E-03
DAV:  18    -0.165440932482E+02   -0.31242E-04   -0.59337E-06  3194   0.115E-02    0.383E-03
DAV:  19    -0.165440962548E+02   -0.30066E-05   -0.71729E-07  3542   0.861E-03    0.187E-03
DAV:  20    -0.165440987113E+02   -0.24565E-05   -0.29145E-07  3176   0.297E-03    0.710E-04
DAV:  21    -0.165440999419E+02   -0.12306E-05   -0.57954E-08  2640   0.106E-03    0.483E-04
DAV:  22    -0.165441010325E+02   -0.10907E-05   -0.30831E-08  2358   0.634E-04    0.167E-04
DAV:  23    -0.165441017237E+02   -0.69114E-06   -0.25485E-08  2286   0.615E-04    0.243E-04
DAV:  24    -0.165441024219E+02   -0.69825E-06   -0.12345E-08  2248   0.437E-04    0.229E-04
DAV:  25    -0.165441028955E+02   -0.47357E-06   -0.10290E-08  2320   0.467E-04    0.910E-05
DAV:  26    -0.165441031170E+02   -0.22148E-06   -0.64361E-09  2326   0.261E-04    0.939E-05
DAV:  27    -0.165441031143E+02    0.26839E-08   -0.37909E-09  2272   0.322E-04
   1 F= -.17782459E+02 E0= -.17782459E+02  d E =-.177825E+02
stress tensor set to zero in row and column 1
stress tensor set to zero in row and column 2
stress tensor set to zero in row and column 3
 BRION: g(F)=  0.119E-02 g(S)=  0.000E+00
 bond charge predicted
       N       E                     dE             d eps       ncg     rms          rms(c)
DAV:   1    -0.165450772654E+02   -0.97415E-03   -0.17050E-01  2816   0.218E+00    0.177E-01
DAV:   2    -0.165454487444E+02   -0.37148E-03   -0.41563E-03  3260   0.411E-01    0.710E-02
DAV:   3    -0.165454343917E+02    0.14353E-04   -0.90137E-05  3440   0.880E-02    0.482E-02
DAV:   4    -0.165454482328E+02   -0.13841E-04   -0.74030E-05  3470   0.116E-01    0.411E-02
DAV:   5    -0.165454321160E+02    0.16117E-04   -0.46673E-05  3272   0.917E-02    0.618E-03
DAV:   6    -0.165454322109E+02   -0.94825E-07   -0.68021E-06  3194   0.187E-02    0.548E-03
DAV:   7    -0.165454318607E+02    0.35015E-06   -0.56958E-07  3230   0.459E-03    0.326E-03
DAV:   8    -0.165454315590E+02    0.30167E-06   -0.11777E-06  3308   0.597E-03    0.126E-03
DAV:   9    -0.165454315652E+02   -0.61932E-08   -0.12985E-07  2870   0.222E-03
   2 F= -.17783328E+02 E0= -.17783328E+02  d E =-.869508E-03
stress tensor set to zero in row and column 1
stress tensor set to zero in row and column 2
stress tensor set to zero in row and column 3
 BRION: g(F)=  0.535E-03 g(S)=  0.000E+00 retain N=  1 mean eig= 0.98
 eig:   0.978
 bond charge predicted
       N       E                     dE             d eps       ncg     rms          rms(c)
DAV:   1    -0.165459379911E+02   -0.50643E-03   -0.47252E-02  2816   0.114E+00    0.131E-01
DAV:   2    -0.165461046366E+02   -0.16665E-03   -0.19708E-03  3356   0.256E-01    0.332E-02
DAV:   3    -0.165461028417E+02    0.17949E-05   -0.34103E-05  3416   0.581E-02    0.241E-02
DAV:   4    -0.165461030644E+02   -0.22276E-06   -0.15876E-05  3296   0.563E-02    0.185E-02
DAV:   5    -0.165461003597E+02    0.27047E-05   -0.11708E-05  3416   0.371E-02    0.302E-03
DAV:   6    -0.165461003812E+02   -0.21472E-07   -0.18823E-06  3530   0.910E-03    0.273E-03
DAV:   7    -0.165461003208E+02    0.60390E-07   -0.15304E-07  3182   0.247E-03    0.180E-03
DAV:   8    -0.165461003122E+02    0.86457E-08   -0.16521E-07  3018   0.222E-03
   3 F= -.17783755E+02 E0= -.17783755E+02  d E =-.426342E-03
stress tensor set to zero in row and column 1
stress tensor set to zero in row and column 2
stress tensor set to zero in row and column 3
 BRION: g(F)=  0.249E-03 g(S)=  0.000E+00 retain N=  2 mean eig= 1.48
 eig:   1.477  1.477
 bond charge predicted
       N       E                     dE             d eps       ncg     rms          rms(c)
DAV:   1    -0.165464341889E+02   -0.33387E-03   -0.22074E-01  2816   0.249E+00    0.273E-01
DAV:   2    -0.165471880163E+02   -0.75383E-03   -0.85979E-03  3434   0.536E-01    0.824E-02
DAV:   3    -0.165471726537E+02    0.15363E-04   -0.12885E-04  3512   0.988E-02    0.581E-02
DAV:   4    -0.165471891912E+02   -0.16538E-04   -0.96972E-05  3458   0.128E-01    0.440E-02
DAV:   5    -0.165471666190E+02    0.22572E-04   -0.62028E-05  3434   0.107E-01    0.725E-03
DAV:   6    -0.165471662505E+02    0.36841E-06   -0.77305E-06  3194   0.208E-02    0.702E-03
DAV:   7    -0.165471658515E+02    0.39901E-06   -0.73487E-07  3530   0.547E-03    0.475E-03
DAV:   8    -0.165471656269E+02    0.22464E-06   -0.12641E-06  3236   0.623E-03    0.196E-03
DAV:   9    -0.165471656442E+02   -0.17268E-07   -0.17337E-07  3260   0.248E-03
   4 F= -.17784144E+02 E0= -.17784144E+02  d E =-.388948E-03
stress tensor set to zero in row and column 1
stress tensor set to zero in row and column 2
stress tensor set to zero in row and column 3
 BRION: g(F)=  0.194E-05 g(S)=  0.000E+00 retain N=  2 mean eig= 2.20
 eig:   2.205  2.205
 bond charge predicted
       N       E                     dE             d eps       ncg     rms          rms(c)
DAV:   1    -0.165471827192E+02   -0.17092E-04   -0.41050E-04  3188   0.108E-01    0.103E-02
DAV:   2    -0.165471840091E+02   -0.12898E-05   -0.14896E-05  3380   0.251E-02    0.439E-03
DAV:   3    -0.165471839700E+02    0.39015E-07   -0.11014E-06  3446   0.137E-02    0.302E-03
DAV:   4    -0.165471839178E+02    0.52200E-07   -0.36878E-07  2926   0.956E-03    0.218E-03
DAV:   5    -0.165471838910E+02    0.26830E-07   -0.85897E-08  2450   0.295E-03
   5 F= -.17784145E+02 E0= -.17784145E+02  d E =-.156040E-05
stress tensor set to zero in row and column 1
stress tensor set to zero in row and column 2
stress tensor set to zero in row and column 3
 BRION: g(F)=  0.846E-06 g(S)=  0.000E+00 retain N=  3 mean eig= 2.64
 eig:   3.505  3.505  0.914
 bond charge predicted
       N       E                     dE             d eps       ncg     rms          rms(c)
DAV:   1    -0.165471878459E+02   -0.39281E-05   -0.13174E-04  2996   0.613E-02    0.407E-03
DAV:   2    -0.165471881485E+02   -0.30264E-06   -0.35398E-06  3284   0.124E-02    0.198E-03
DAV:   3    -0.165471881340E+02    0.14542E-07   -0.16915E-07  3256   0.493E-03
   6 F= -.17784146E+02 E0= -.17784146E+02  d E =-.576331E-06
stress tensor set to zero in row and column 1
stress tensor set to zero in row and column 2
stress tensor set to zero in row and column 3
 BRION: g(F)=  0.364E-06 g(S)=  0.000E+00 retain N=  4 mean eig= 4.15
 eig:   6.881  6.881  1.425  1.425
 bond charge predicted
       N       E                     dE             d eps       ncg     rms          rms(c)
DAV:   1    -0.165471806774E+02    0.74711E-05   -0.18702E-04  3140   0.729E-02    0.583E-03
DAV:   2    -0.165471813325E+02   -0.65513E-06   -0.70587E-06  3362   0.157E-02    0.241E-03
DAV:   3    -0.165471813390E+02   -0.64947E-08   -0.13620E-07  3080   0.380E-03
   7 F= -.17784146E+02 E0= -.17784146E+02  d E =-.592467E-06
stress tensor set to zero in row and column 1
stress tensor set to zero in row and column 2
stress tensor set to zero in row and column 3
 BRION: g(F)=  0.892E-07 g(S)=  0.000E+00 retain N=  2 mean eig= 2.04
 eig:   2.039  2.039
 bond charge predicted
       N       E                     dE             d eps       ncg     rms          rms(c)
DAV:   1    -0.165471818706E+02   -0.53809E-06   -0.19549E-05  3188   0.239E-02    0.188E-03
DAV:   2    -0.165471819877E+02   -0.11703E-06   -0.82033E-07  3194   0.985E-03    0.225E-03
DAV:   3    -0.165471819373E+02    0.50375E-07   -0.18805E-07  2858   0.621E-03    0.832E-04
DAV:   4    -0.165471819426E+02   -0.52919E-08   -0.16177E-08  2248   0.111E-03
   8 F= -.17784146E+02 E0= -.17784146E+02  d E =-.166924E-06
stress tensor set to zero in row and column 1
stress tensor set to zero in row and column 2
stress tensor set to zero in row and column 3
 BRION: g(F)=  0.373E-07 g(S)=  0.000E+00 retain N=  2 mean eig= 3.55
 eig:   3.551  3.551
 reached required accuracy - stopping structural energy minimisation
 writing wavefunctions
