 vasp.5.4.4.16052018 (build Dec 07 2020 11:33:42) complex                       
  
 executed on             LinuxIFC date 2020.12.16  02:49:27
 running on    8 total cores
 distrk:  each k-point on    2 cores,    4 groups
 distr:  one band on NCORES_PER_BAND=   1 cores,    2 groups


--------------------------------------------------------------------------------------------------------


 INCAR:
 POTCAR:    PAW_PBE Cl 06Sep2000                  
 POTCAR:    PAW_PBE Br 06Sep2000                  
 POTCAR:    PAW_PBE Pt 04Feb2005                  

 ----------------------------------------------------------------------------- 
|                                                                             |
|           W    W    AA    RRRRR   N    N  II  N    N   GGGG   !!!           |
|           W    W   A  A   R    R  NN   N  II  NN   N  G    G  !!!           |
|           W    W  A    A  R    R  N N  N  II  N N  N  G       !!!           |
|           W WW W  AAAAAA  RRRRR   N  N N  II  N  N N  G  GGG   !            |
|           WW  WW  A    A  R   R   N   NN  II  N   NN  G    G                |
|           W    W  A    A  R    R  N    N  II  N    N   GGGG   !!!           |
|                                                                             |
|      For optimal performance we recommend to set                            |
|        NCORE= 4 - approx SQRT( number of cores)                             |
|      NCORE specifies how many cores store one orbital (NPAR=cpu/NCORE).     |
|      This setting can  greatly improve the performance of VASP for DFT.     |
|      The default,   NCORE=1            might be grossly inefficient         |
|      on modern multi-core architectures or massively parallel machines.     |
|      Do your own testing !!!!                                               |
|      Unfortunately you need to use the default for GW and RPA calculations. |
|      (for HF NCORE is supported but not extensively tested yet)             |
|                                                                             |
 ----------------------------------------------------------------------------- 


 ----------------------------------------------------------------------------- 
|                                                                             |
|           W    W    AA    RRRRR   N    N  II  N    N   GGGG   !!!           |
|           W    W   A  A   R    R  NN   N  II  NN   N  G    G  !!!           |
|           W    W  A    A  R    R  N N  N  II  N N  N  G       !!!           |
|           W WW W  AAAAAA  RRRRR   N  N N  II  N  N N  G  GGG   !            |
|           WW  WW  A    A  R   R   N   NN  II  N   NN  G    G                |
|           W    W  A    A  R    R  N    N  II  N    N   GGGG   !!!           |
|                                                                             |
|      You have enabled k-point parallelism (KPAR>1).                         |
|      This developmental code was originally  written by Paul Kent at ORNL,  |
|      and carefully double checked in Vienna.                                |
|      GW as well as linear response parallelism added by Martijn Marsman     |
|      and Georg Kresse.                                                      |
|      Carefully verify results versus KPAR=1.                                |
|      Report problems to Paul Kent and Vienna.                               |
|                                                                             |
 ----------------------------------------------------------------------------- 

 POTCAR:    PAW_PBE Cl 06Sep2000                  
   VRHFIN =Cl: s2p5                                                             
   LEXCH  = PE                                                                  
   EATOM  =   409.7259 eV,   30.1140 Ry                                         
                                                                                
   TITEL  = PAW_PBE Cl 06Sep2000                                                
   LULTRA =        F    use ultrasoft PP ?                                      
   IUNSCR =        1    unscreen: 0-lin 1-nonlin 2-no                           
   RPACOR =    1.500    partial core radius                                     
   POMASS =   35.453; ZVAL   =    7.000    mass and valenz                      
   RCORE  =    1.900    outmost cutoff radius                                   
   RWIGS  =    2.100; RWIGS  =    1.111    wigner-seitz radius (au A)           
   ENMAX  =  262.472; ENMIN  =  196.854 eV                                      
   ICORE  =        2    local potential                                         
   LCOR   =        T    correct aug charges                                     
   LPAW   =        T    paw PP                                                  
   EAUG   =  356.192                                                            
   DEXC   =    0.000                                                            
   RMAX   =    1.945    core radius for proj-oper                               
   RAUG   =    1.300    factor for augmentation sphere                          
   RDEP   =    2.020    radius for radial grids                                 
   RDEPT  =    1.678    core radius for aug-charge                              
                                                                                
   Atomic configuration                                                         
    6 entries                                                                   
     n  l   j            E        occ.                                          
     1  0  0.50     -2751.1850   2.0000                                         
     2  0  0.50      -252.6861   2.0000                                         
     2  1  1.50      -191.6157   6.0000                                         
     3  0  0.50       -20.6916   2.0000                                         
     3  1  0.50        -8.5949   5.0000                                         
     3  2  1.50        -8.1635   0.0000                                         
   Description                                                                  
     l       E           TYP  RCUT    TYP  RCUT                                 
     0    -20.6915656     23  1.900                                             
     0    -22.0521482     23  1.900                                             
     1     -8.5948577     23  1.900                                             
     1     -5.3847331     23  1.900                                             
     2     -8.1634956     23  1.900                                             
  local pseudopotential read in
  partial core-charges read in
  partial kinetic energy density read in
  atomic valenz-charges read in
  non local Contribution for L=           0  read in
    real space projection operators read in
  non local Contribution for L=           0  read in
    real space projection operators read in
  non local Contribution for L=           1  read in
    real space projection operators read in
  non local Contribution for L=           1  read in
    real space projection operators read in
    PAW grid and wavefunctions read in
 
   number of l-projection  operators is LMAX  =           4
   number of lm-projection operators is LMMAX =           8
 
 POTCAR:    PAW_PBE Br 06Sep2000                  
   VRHFIN =Br: s2p5                                                             
   LEXCH  = PE                                                                  
   EATOM  =   368.4488 eV,   27.0802 Ry                                         
                                                                                
   TITEL  = PAW_PBE Br 06Sep2000                                                
   LULTRA =        F    use ultrasoft PP ?                                      
   IUNSCR =        1    unscreen: 0-lin 1-nonlin 2-no                           
   RPACOR =    1.900    partial core radius                                     
   POMASS =   79.904; ZVAL   =    7.000    mass and valenz                      
   RCORE  =    2.100    outmost cutoff radius                                   
   RWIGS  =    2.200; RWIGS  =    1.164    wigner-seitz radius (au A)           
   ENMAX  =  216.285; ENMIN  =  162.214 eV                                      
   ICORE  =        3    local potential                                         
   LCOR   =        T    correct aug charges                                     
   LPAW   =        T    paw PP                                                  
   EAUG   =  503.852                                                            
   DEXC   =    0.000                                                            
   RMAX   =    2.139    core radius for proj-oper                               
   RAUG   =    1.300    factor for augmentation sphere                          
   RDEP   =    2.186    radius for radial grids                                 
   RDEPT  =    1.890    core radius for aug-charge                              
                                                                                
   Atomic configuration                                                         
   10 entries                                                                   
     n  l   j            E        occ.                                          
     1  0  0.50    -13316.2796   2.0000                                         
     2  0  0.50     -1732.8239   2.0000                                         
     2  1  1.50     -1528.2193   6.0000                                         
     3  0  0.50      -238.0460   2.0000                                         
     3  1  1.50      -173.4609   6.0000                                         
     3  2  2.50       -66.7132  10.0000                                         
     4  0  0.50       -20.1334   2.0000                                         
     4  1  0.50        -7.8591   5.0000                                         
     4  2  2.50        -8.1635   0.0000                                         
     4  3  2.50        -8.1635   0.0000                                         
   Description                                                                  
     l       E           TYP  RCUT    TYP  RCUT                                 
     0    -20.1333652     23  2.100                                             
     0    -21.4939478     23  2.100                                             
     1     -7.8591052     23  2.100                                             
     1     -3.1608434     23  2.100                                             
     2     -8.1634956     23  2.100                                             
     3     -1.3605826      7  2.100                                             
  local pseudopotential read in
  partial core-charges read in
  partial kinetic energy density read in
  atomic valenz-charges read in
  non local Contribution for L=           0  read in
    real space projection operators read in
  non local Contribution for L=           0  read in
    real space projection operators read in
  non local Contribution for L=           1  read in
    real space projection operators read in
  non local Contribution for L=           1  read in
    real space projection operators read in
  non local Contribution for L=           2  read in
    real space projection operators read in
    PAW grid and wavefunctions read in
 
   number of l-projection  operators is LMAX  =           5
   number of lm-projection operators is LMMAX =          13
 
 POTCAR:    PAW_PBE Pt 04Feb2005                  
   VRHFIN =Pt: s1d9                                                             
   LEXCH  = PE                                                                  
   EATOM  =   729.1176 eV,   53.5886 Ry                                         
                                                                                
   TITEL  = PAW_PBE Pt 04Feb2005                                                
   LULTRA =        F    use ultrasoft PP ?                                      
   IUNSCR =        1    unscreen: 0-lin 1-nonlin 2-no                           
   RPACOR =    2.330    partial core radius                                     
   POMASS =  195.080; ZVAL   =   10.000    mass and valenz                      
   RCORE  =    2.600    outmost cutoff radius                                   
   RWIGS  =    2.750; RWIGS  =    1.455    wigner-seitz radius (au A)           
   ENMAX  =  230.283; ENMIN  =  172.712 eV                                      
   ICORE  =        3    local potential                                         
   LCOR   =        T    correct aug charges                                     
   LPAW   =        T    paw PP                                                  
   EAUG   =  358.966                                                            
   DEXC   =    0.000                                                            
   RMAX   =    2.658    core radius for proj-oper                               
   RAUG   =    1.300    factor for augmentation sphere                          
   RDEP   =    2.761    radius for radial grids                                 
   RDEPT  =    2.203    core radius for aug-charge                              
                                                                                
   Atomic configuration                                                         
   16 entries                                                                   
     n  l   j            E        occ.                                          
     1  0  0.50    -78401.1885   2.0000                                         
     2  0  0.50    -13770.7750   2.0000                                         
     2  1  1.50    -11931.0468   6.0000                                         
     3  0  0.50     -3234.7234   2.0000                                         
     3  1  1.50     -2699.2216   6.0000                                         
     3  2  2.50     -2119.5714  10.0000                                         
     4  0  0.50      -695.1528   2.0000                                         
     4  1  1.50      -519.6034   6.0000                                         
     4  2  2.50      -306.6786  10.0000                                         
     4  3  3.50       -70.1041  14.0000                                         
     5  0  0.50      -101.7747   2.0000                                         
     5  1  1.50       -55.9873   6.0000                                         
     5  2  2.50        -6.1423   9.0000                                         
     6  0  0.50        -5.6573   1.0000                                         
     6  1  1.50        -6.8029   0.0000                                         
     5  3  2.50        -1.3606   0.0000                                         
   Description                                                                  
     l       E           TYP  RCUT    TYP  RCUT                                 
     2     -6.1423404     23  2.500                                             
     2     -7.5029230     23  2.500                                             
     0     -5.6573207     23  2.500                                             
     0      0.7416693     23  2.500                                             
     1     -2.7211652     23  2.600                                             
     1     20.4087390     23  2.600                                             
     3     -1.3605826     23  2.500                                             
  local pseudopotential read in
  partial core-charges read in
  partial kinetic energy density read in
  atomic valenz-charges read in
  non local Contribution for L=           2  read in
    real space projection operators read in
  non local Contribution for L=           2  read in
    real space projection operators read in
  non local Contribution for L=           0  read in
    real space projection operators read in
  non local Contribution for L=           0  read in
    real space projection operators read in
  non local Contribution for L=           1  read in
    real space projection operators read in
  non local Contribution for L=           1  read in
    real space projection operators read in
    PAW grid and wavefunctions read in
 
   number of l-projection  operators is LMAX  =           6
   number of lm-projection operators is LMMAX =          18
 
  PAW_PBE Cl 06Sep2000                  :
 energy of atom  1       EATOM= -409.7259
 kinetic energy error for atom=    0.0089 (will be added to EATOM!!)
  PAW_PBE Br 06Sep2000                  :
 energy of atom  2       EATOM= -368.4488
 kinetic energy error for atom=    0.0032 (will be added to EATOM!!)
  PAW_PBE Pt 04Feb2005                  :
 energy of atom  3       EATOM= -729.1176
 kinetic energy error for atom=    0.0056 (will be added to EATOM!!)
 
 
 POSCAR: ClBrPt2                                 
  positions in direct lattice
  velocities in cartesian coordinates
 exchange correlation table for  LEXCH =        8
   RHO(1)=    0.500       N(1)  =     2000
   RHO(2)=  100.500       N(2)  =     4000
 


--------------------------------------------------------------------------------------------------------


 ion  position               nearest neighbor table
   1  0.000  0.500  0.170-   4 2.48   4 2.48   4 2.49
   2  0.000  0.500  0.385-   3 2.57   3 2.58   3 2.58
   3  0.333  0.167  0.310-   4 2.57   4 2.57   2 2.57   4 2.57   2 2.58   2 2.58
   4  0.667  0.833  0.236-   1 2.48   1 2.48   1 2.49   3 2.57   3 2.57   3 2.57
 

IMPORTANT INFORMATION: All symmetrisations will be switched off!
NOSYMM: (Re-)initialisation of all symmetry stuff for point group C_1.

 
 
 KPOINTS: Automatic mesh                          

Automatic generation of k-mesh.
Space group operators:
 irot       det(A)        alpha          n_x          n_y          n_z        tau_x        tau_y        tau_z
    1     1.000000     0.000000     1.000000     0.000000     0.000000     0.000000     0.000000     0.000000
 
 Subroutine IBZKPT returns following result:
 ===========================================
 
 Found     64 irreducible k-points:
 
 Following reciprocal coordinates:
            Coordinates               Weight
  0.000000  0.000000  0.000000      1.000000
  0.125000 -0.000000  0.000000      1.000000
  0.250000 -0.000000  0.000000      1.000000
  0.375000 -0.000000  0.000000      1.000000
  0.500000 -0.000000  0.000000      1.000000
 -0.375000  0.000000  0.000000      1.000000
 -0.250000  0.000000  0.000000      1.000000
 -0.125000  0.000000  0.000000      1.000000
 -0.000000  0.125000  0.000000      1.000000
  0.125000  0.125000  0.000000      1.000000
  0.250000  0.125000  0.000000      1.000000
  0.375000  0.125000  0.000000      1.000000
  0.500000  0.125000  0.000000      1.000000
 -0.375000  0.125000  0.000000      1.000000
 -0.250000  0.125000  0.000000      1.000000
 -0.125000  0.125000  0.000000      1.000000
 -0.000000  0.250000  0.000000      1.000000
  0.125000  0.250000  0.000000      1.000000
  0.250000  0.250000  0.000000      1.000000
  0.375000  0.250000  0.000000      1.000000
  0.500000  0.250000  0.000000      1.000000
 -0.375000  0.250000  0.000000      1.000000
 -0.250000  0.250000  0.000000      1.000000
 -0.125000  0.250000  0.000000      1.000000
 -0.000000  0.375000  0.000000      1.000000
  0.125000  0.375000  0.000000      1.000000
  0.250000  0.375000  0.000000      1.000000
  0.375000  0.375000  0.000000      1.000000
  0.500000  0.375000  0.000000      1.000000
 -0.375000  0.375000  0.000000      1.000000
 -0.250000  0.375000  0.000000      1.000000
 -0.125000  0.375000  0.000000      1.000000
 -0.000000  0.500000  0.000000      1.000000
  0.125000  0.500000  0.000000      1.000000
  0.250000  0.500000  0.000000      1.000000
  0.375000  0.500000  0.000000      1.000000
  0.500000  0.500000  0.000000      1.000000
 -0.375000  0.500000  0.000000      1.000000
 -0.250000  0.500000  0.000000      1.000000
 -0.125000  0.500000  0.000000      1.000000
  0.000000 -0.375000  0.000000      1.000000
  0.125000 -0.375000  0.000000      1.000000
  0.250000 -0.375000  0.000000      1.000000
  0.375000 -0.375000  0.000000      1.000000
  0.500000 -0.375000  0.000000      1.000000
 -0.375000 -0.375000  0.000000      1.000000
 -0.250000 -0.375000  0.000000      1.000000
 -0.125000 -0.375000  0.000000      1.000000
  0.000000 -0.250000  0.000000      1.000000
  0.125000 -0.250000  0.000000      1.000000
  0.250000 -0.250000  0.000000      1.000000
  0.375000 -0.250000  0.000000      1.000000
  0.500000 -0.250000  0.000000      1.000000
 -0.375000 -0.250000  0.000000      1.000000
 -0.250000 -0.250000  0.000000      1.000000
 -0.125000 -0.250000  0.000000      1.000000
  0.000000 -0.125000  0.000000      1.000000
  0.125000 -0.125000  0.000000      1.000000
  0.250000 -0.125000  0.000000      1.000000
  0.375000 -0.125000  0.000000      1.000000
  0.500000 -0.125000  0.000000      1.000000
 -0.375000 -0.125000  0.000000      1.000000
 -0.250000 -0.125000  0.000000      1.000000
 -0.125000 -0.125000  0.000000      1.000000
 
 Following cartesian coordinates:
            Coordinates               Weight
  0.000000  0.000000  0.000000      1.000000
  0.034564  0.019594  0.000000      1.000000
  0.069128  0.039189  0.000000      1.000000
  0.103692  0.058783  0.000000      1.000000
  0.138256  0.078377  0.000000      1.000000
 -0.103692 -0.058783  0.000000      1.000000
 -0.069128 -0.039189  0.000000      1.000000
 -0.034564 -0.019594  0.000000      1.000000
  0.000400  0.039681  0.000000      1.000000
  0.034964  0.059276  0.000000      1.000000
  0.069528  0.078870  0.000000      1.000000
  0.104091  0.098464  0.000000      1.000000
  0.138655  0.118059  0.000000      1.000000
 -0.103292 -0.019102  0.000000      1.000000
 -0.068728  0.000493  0.000000      1.000000
 -0.034164  0.020087  0.000000      1.000000
  0.000799  0.079363  0.000000      1.000000
  0.035363  0.098957  0.000000      1.000000
  0.069927  0.118552  0.000000      1.000000
  0.104491  0.138146  0.000000      1.000000
  0.139055  0.157740  0.000000      1.000000
 -0.102893  0.020580  0.000000      1.000000
 -0.068329  0.040174  0.000000      1.000000
 -0.033765  0.059769  0.000000      1.000000
  0.001199  0.119044  0.000000      1.000000
  0.035763  0.138639  0.000000      1.000000
  0.070327  0.158233  0.000000      1.000000
  0.104891  0.177827  0.000000      1.000000
  0.139455  0.197422  0.000000      1.000000
 -0.102493  0.060261  0.000000      1.000000
 -0.067929  0.079856  0.000000      1.000000
 -0.033365  0.099450  0.000000      1.000000
  0.001598  0.158726  0.000000      1.000000
  0.036162  0.178320  0.000000      1.000000
  0.070726  0.197914  0.000000      1.000000
  0.105290  0.217509  0.000000      1.000000
  0.139854  0.237103  0.000000      1.000000
 -0.102093  0.099943  0.000000      1.000000
 -0.067529  0.119537  0.000000      1.000000
 -0.032965  0.139131  0.000000      1.000000
 -0.001199 -0.119044  0.000000      1.000000
  0.033365 -0.099450  0.000000      1.000000
  0.067929 -0.079856  0.000000      1.000000
  0.102493 -0.060261  0.000000      1.000000
  0.137057 -0.040667  0.000000      1.000000
 -0.104891 -0.177827  0.000000      1.000000
 -0.070327 -0.158233  0.000000      1.000000
 -0.035763 -0.138639  0.000000      1.000000
 -0.000799 -0.079363  0.000000      1.000000
  0.033765 -0.059769  0.000000      1.000000
  0.068329 -0.040174  0.000000      1.000000
  0.102893 -0.020580  0.000000      1.000000
  0.137457 -0.000986  0.000000      1.000000
 -0.104491 -0.138146  0.000000      1.000000
 -0.069927 -0.118552  0.000000      1.000000
 -0.035363 -0.098957  0.000000      1.000000
 -0.000400 -0.039681  0.000000      1.000000
  0.034164 -0.020087  0.000000      1.000000
  0.068728 -0.000493  0.000000      1.000000
  0.103292  0.019102  0.000000      1.000000
  0.137856  0.038696  0.000000      1.000000
 -0.104091 -0.098464  0.000000      1.000000
 -0.069528 -0.078870  0.000000      1.000000
 -0.034964 -0.059276  0.000000      1.000000
 


--------------------------------------------------------------------------------------------------------




 Dimension of arrays:
   k-points           NKPTS =     64   k-points in BZ     NKDIM =     64   number of bands    NBANDS=     22
   number of dos      NEDOS =    301   number of ions     NIONS =      4
   non local maximal  LDIM  =      6   non local SUM 2l+1 LMDIM =     18
   total plane-waves  NPLWV =  80640
   max r-space proj   IRMAX =      1   max aug-charges    IRDMAX=  21511
   dimension x,y,z NGX =    24 NGY =   24 NGZ =  140
   dimension x,y,z NGXF=    48 NGYF=   48 NGZF=  280
   support grid    NGXF=    48 NGYF=   48 NGZF=  280
   ions per type =               1   1   2
   NGX,Y,Z   is equivalent  to a cutoff of  10.97, 10.96, 11.64 a.u.
   NGXF,Y,Z  is equivalent  to a cutoff of  21.94, 21.91, 23.27 a.u.

 SYSTEM =  unknown system                          
 POSCAR =  ClBrPt2                                 

 Startparameter for this run:
   NWRITE =      2    write-flag & timer
   PREC   = accura    normal or accurate (medium, high low for compatibility)
   ISTART =      0    job   : 0-new  1-cont  2-samecut
   ICHARG =      2    charge: 1-file 2-atom 10-const
   ISPIN  =      1    spin polarized calculation?
   LNONCOLLINEAR =      F non collinear calculations
   LSORBIT =      F    spin-orbit coupling
   INIWAV =      1    electr: 0-lowe 1-rand  2-diag
   LASPH  =      F    aspherical Exc in radial PAW
   METAGGA=      F    non-selfconsistent MetaGGA calc.

 Electronic Relaxation 1
   ENCUT  =  400.0 eV  29.40 Ry    5.42 a.u.   5.93  5.94 32.61*2*pi/ulx,y,z
   ENINI  =  400.0     initial cutoff
   ENAUG  =  503.9 eV  augmentation charge cutoff
   NELM   =     60;   NELMIN=  2; NELMDL= -5     # of ELM steps 
   EDIFF  = 0.5E-07   stopping-criterion for ELM
   LREAL  =      F    real-space projection
   NLSPLINE    = F    spline interpolate recip. space projectors
   LCOMPAT=      F    compatible to vasp.4.4
   GGA_COMPAT  = T    GGA compatible to vasp.4.4-vasp.4.6
   LMAXPAW     = -100 max onsite density
   LMAXMIX     =    2 max onsite mixed and CHGCAR
   VOSKOWN=      0    Vosko Wilk Nusair interpolation
   ROPT   =    0.00000   0.00000   0.00000
 Ionic relaxation
   EDIFFG = 0.5E-06   stopping-criterion for IOM
   NSW    =    100    number of steps for IOM
   NBLOCK =      1;   KBLOCK =    100    inner block; outer block 
   IBRION =      1    ionic relax: 0-MD 1-quasi-New 2-CG
   NFREE  =      0    steps in history (QN), initial steepest desc. (CG)
   ISIF   =      3    stress and relaxation
   IWAVPR =     11    prediction:  0-non 1-charg 2-wave 3-comb
   ISYM   =     -1    0-nonsym 1-usesym 2-fastsym
   LCORR  =      T    Harris-Foulkes like correction to forces

   POTIM  = 0.5000    time-step for ionic-motion
   TEIN   =    0.0    initial temperature
   TEBEG  =    0.0;   TEEND  =   0.0 temperature during run
   SMASS  =  -3.00    Nose mass-parameter (am)
   estimated Nose-frequenzy (Omega)   =  0.10E-29 period in steps =****** mass=  -0.302E-27a.u.
   SCALEE = 1.0000    scale energy and forces
   NPACO  =    256;   APACO  = 16.0  distance and # of slots for P.C.
   PSTRESS=    0.0 pullay stress

  Mass of Ions in am
   POMASS =  35.45 79.90195.08
  Ionic Valenz
   ZVAL   =   7.00  7.00 10.00
  Atomic Wigner-Seitz radii
   RWIGS  =  -1.00 -1.00 -1.00
  virtual crystal weights 
   VCA    =   1.00  1.00  1.00
   NELECT =      34.0000    total number of electrons
   NUPDOWN=      -1.0000    fix difference up-down

 DOS related values:
   EMIN   =  10.00;   EMAX   =-10.00  energy-range for DOS
   EFERMI =   0.00
   ISMEAR =     0;   SIGMA  =   0.10  broadening in eV -4-tet -1-fermi 0-gaus

 Electronic relaxation 2 (details)
   IALGO  =     38    algorithm
   LDIAG  =      T    sub-space diagonalisation (order eigenvalues)
   LSUBROT=      F    optimize rotation matrix (better conditioning)
   TURBO    =      0    0=normal 1=particle mesh
   IRESTART =      0    0=no restart 2=restart with 2 vectors
   NREBOOT  =      0    no. of reboots
   NMIN     =      0    reboot dimension
   EREF     =   0.00    reference energy to select bands
   IMIX   =      4    mixing-type and parameters
     AMIX     =   0.40;   BMIX     =  1.00
     AMIX_MAG =   1.60;   BMIX_MAG =  1.00
     AMIN     =   0.10
     WC   =   100.;   INIMIX=   1;  MIXPRE=   1;  MAXMIX= -45

 Intra band minimization:
   WEIMIN = 0.0010     energy-eigenvalue tresh-hold
   EBREAK =  0.57E-09  absolut break condition
   DEPER  =   0.30     relativ break condition  

   TIME   =   0.40     timestep for ELM

  volume/ion in A,a.u.               =      57.29       386.60
  Fermi-wavevector in a.u.,A,eV,Ry     =   0.866681  1.637789 10.219822  0.751136
  Thomas-Fermi vector in A             =   1.985105
 
 Write flags
   LWAVE        =      T    write WAVECAR
   LDOWNSAMPLE  =      F    k-point downsampling of WAVECAR
   LCHARG       =      T    write CHGCAR
   LVTOT        =      F    write LOCPOT, total local potential
   LVHAR        =      F    write LOCPOT, Hartree potential only
   LELF         =      F    write electronic localiz. function (ELF)
   LORBIT       =      0    0 simple, 1 ext, 2 COOP (PROOUT), +10 PAW based schemes


 Dipole corrections
   LMONO  =      F    monopole corrections only (constant potential shift)
   LDIPOL =      T    correct potential (dipole corrections)
   IDIPOL =      3    1-x, 2-y, 3-z, 4-all directions 
   EPSILON=  1.0000000 bulk dielectric constant

 Exchange correlation treatment:
   GGA     =    --    GGA type
   LEXCH   =     8    internal setting for exchange type
   VOSKOWN=      0    Vosko Wilk Nusair interpolation
   LHFCALC =     F    Hartree Fock is set to
   LHFONE  =     F    Hartree Fock one center treatment
   AEXX    =    0.0000 exact exchange contribution

 Linear response parameters
   LEPSILON=     F    determine dielectric tensor
   LRPA    =     F    only Hartree local field effects (RPA)
   LNABLA  =     F    use nabla operator in PAW spheres
   LVEL    =     F    velocity operator in full k-point grid
   LINTERFAST=   F  fast interpolation
   KINTER  =     0    interpolate to denser k-point grid
   CSHIFT  =0.1000    complex shift for real part using Kramers Kronig
   OMEGAMAX=  -1.0    maximum frequency
   DEG_THRESHOLD= 0.2000000E-02 threshold for treating states as degnerate
   RTIME   =   -0.100 relaxation time in fs
  (WPLASMAI=    0.000 imaginary part of plasma frequency in eV, 0.658/RTIME)
   DFIELD  = 0.0000000 0.0000000 0.0000000 field for delta impulse in time
 
 Orbital magnetization related:
   ORBITALMAG=     F  switch on orbital magnetization
   LCHIMAG   =     F  perturbation theory with respect to B field
   DQ        =  0.001000  dq finite difference perturbation B field
   LLRAUG    =     F  two centre corrections for induced B field



--------------------------------------------------------------------------------------------------------


 quasi-Newton-method for relaxation of ions
 charge density and potential will be updated during run
 non-spin polarized calculation
 Variant of blocked Davidson
 Davidson routine will perform the subspace rotation
 perform sub-space diagonalisation
    after iterative eigenvector-optimisation
 modified Broyden-mixing scheme, WC =      100.0
 initial mixing is a Kerker type mixing with AMIX =  0.4000 and BMIX =      1.0000
 Hartree-type preconditioning will be used
 using additional bands            5
 reciprocal scheme for non local part
 use partial core corrections
 calculate Harris-corrections to forces 
   (improved forces if not selfconsistent)
 use gradient corrections 
 use of overlap-Matrix (Vanderbilt PP)
 Gauss-broadening in eV      SIGMA  =   0.10


--------------------------------------------------------------------------------------------------------


  energy-cutoff  :      400.00
  volume of cell :      229.15
      direct lattice vectors                 reciprocal lattice vectors
     3.637250369 -0.036629028  0.000000000     0.276511559  0.156754677  0.000000000
    -1.796041249  3.168174471  0.000000000     0.003196904  0.317451511  0.000000000
     0.000000000  0.000000000 20.000000000     0.000000000  0.000000000  0.050000000

  length of vectors
     3.637434801  3.641853051 20.000000000     0.317853223  0.317467607  0.050000000


 
 k-points in units of 2pi/SCALE and weight: Automatic mesh                          
   0.00000000  0.00000000  0.00000000       0.016
   0.03456394  0.01959433  0.00000000       0.016
   0.06912789  0.03918867  0.00000000       0.016
   0.10369183  0.05878300  0.00000000       0.016
   0.13825578  0.07837734  0.00000000       0.016
  -0.10369183 -0.05878300  0.00000000       0.016
  -0.06912789 -0.03918867  0.00000000       0.016
  -0.03456394 -0.01959433  0.00000000       0.016
   0.00039961  0.03968144  0.00000000       0.016
   0.03496356  0.05927577  0.00000000       0.016
   0.06952750  0.07887011  0.00000000       0.016
   0.10409145  0.09846444  0.00000000       0.016
   0.13865539  0.11805878  0.00000000       0.016
  -0.10329222 -0.01910157  0.00000000       0.016
  -0.06872828  0.00049277  0.00000000       0.016
  -0.03416433  0.02008710  0.00000000       0.016
   0.00079923  0.07936288  0.00000000       0.016
   0.03536317  0.09895721  0.00000000       0.016
   0.06992712  0.11855155  0.00000000       0.016
   0.10449106  0.13814588  0.00000000       0.016
   0.13905501  0.15774022  0.00000000       0.016
  -0.10289261  0.02057987  0.00000000       0.016
  -0.06832866  0.04017421  0.00000000       0.016
  -0.03376472  0.05976854  0.00000000       0.016
   0.00119884  0.11904432  0.00000000       0.016
   0.03576278  0.13863865  0.00000000       0.016
   0.07032673  0.15823299  0.00000000       0.016
   0.10489067  0.17782732  0.00000000       0.016
   0.13945462  0.19742166  0.00000000       0.016
  -0.10249300  0.06026131  0.00000000       0.016
  -0.06792905  0.07985565  0.00000000       0.016
  -0.03336511  0.09944998  0.00000000       0.016
   0.00159845  0.15872576  0.00000000       0.016
   0.03616240  0.17832009  0.00000000       0.016
   0.07072634  0.19791442  0.00000000       0.016
   0.10529029  0.21750876  0.00000000       0.016
   0.13985423  0.23710309  0.00000000       0.016
  -0.10209338  0.09994275  0.00000000       0.016
  -0.06752944  0.11953709  0.00000000       0.016
  -0.03296549  0.13913142  0.00000000       0.016
  -0.00119884 -0.11904432  0.00000000       0.016
   0.03336511 -0.09944998  0.00000000       0.016
   0.06792905 -0.07985565  0.00000000       0.016
   0.10249300 -0.06026131  0.00000000       0.016
   0.13705694 -0.04066698  0.00000000       0.016
  -0.10489067 -0.17782732  0.00000000       0.016
  -0.07032673 -0.15823299  0.00000000       0.016
  -0.03576278 -0.13863865  0.00000000       0.016
  -0.00079923 -0.07936288  0.00000000       0.016
   0.03376472 -0.05976854  0.00000000       0.016
   0.06832866 -0.04017421  0.00000000       0.016
   0.10289261 -0.02057987  0.00000000       0.016
   0.13745655 -0.00098554  0.00000000       0.016
  -0.10449106 -0.13814588  0.00000000       0.016
  -0.06992712 -0.11855155  0.00000000       0.016
  -0.03536317 -0.09895721  0.00000000       0.016
  -0.00039961 -0.03968144  0.00000000       0.016
   0.03416433 -0.02008710  0.00000000       0.016
   0.06872828 -0.00049277  0.00000000       0.016
   0.10329222  0.01910157  0.00000000       0.016
   0.13785617  0.03869590  0.00000000       0.016
  -0.10409145 -0.09846444  0.00000000       0.016
  -0.06952750 -0.07887011  0.00000000       0.016
  -0.03496356 -0.05927577  0.00000000       0.016
 
 k-points in reciprocal lattice and weights: Automatic mesh                          
   0.00000000  0.00000000  0.00000000       0.016
   0.12500000 -0.00000000  0.00000000       0.016
   0.25000000 -0.00000000  0.00000000       0.016
   0.37500000 -0.00000000  0.00000000       0.016
   0.50000000 -0.00000000  0.00000000       0.016
  -0.37500000  0.00000000  0.00000000       0.016
  -0.25000000  0.00000000  0.00000000       0.016
  -0.12500000  0.00000000  0.00000000       0.016
  -0.00000000  0.12500000  0.00000000       0.016
   0.12500000  0.12500000  0.00000000       0.016
   0.25000000  0.12500000  0.00000000       0.016
   0.37500000  0.12500000  0.00000000       0.016
   0.50000000  0.12500000  0.00000000       0.016
  -0.37500000  0.12500000  0.00000000       0.016
  -0.25000000  0.12500000  0.00000000       0.016
  -0.12500000  0.12500000  0.00000000       0.016
  -0.00000000  0.25000000  0.00000000       0.016
   0.12500000  0.25000000  0.00000000       0.016
   0.25000000  0.25000000  0.00000000       0.016
   0.37500000  0.25000000  0.00000000       0.016
   0.50000000  0.25000000  0.00000000       0.016
  -0.37500000  0.25000000  0.00000000       0.016
  -0.25000000  0.25000000  0.00000000       0.016
  -0.12500000  0.25000000  0.00000000       0.016
  -0.00000000  0.37500000  0.00000000       0.016
   0.12500000  0.37500000  0.00000000       0.016
   0.25000000  0.37500000  0.00000000       0.016
   0.37500000  0.37500000  0.00000000       0.016
   0.50000000  0.37500000  0.00000000       0.016
  -0.37500000  0.37500000  0.00000000       0.016
  -0.25000000  0.37500000  0.00000000       0.016
  -0.12500000  0.37500000  0.00000000       0.016
  -0.00000000  0.50000000  0.00000000       0.016
   0.12500000  0.50000000  0.00000000       0.016
   0.25000000  0.50000000  0.00000000       0.016
   0.37500000  0.50000000  0.00000000       0.016
   0.50000000  0.50000000  0.00000000       0.016
  -0.37500000  0.50000000  0.00000000       0.016
  -0.25000000  0.50000000  0.00000000       0.016
  -0.12500000  0.50000000  0.00000000       0.016
   0.00000000 -0.37500000  0.00000000       0.016
   0.12500000 -0.37500000  0.00000000       0.016
   0.25000000 -0.37500000  0.00000000       0.016
   0.37500000 -0.37500000  0.00000000       0.016
   0.50000000 -0.37500000  0.00000000       0.016
  -0.37500000 -0.37500000  0.00000000       0.016
  -0.25000000 -0.37500000  0.00000000       0.016
  -0.12500000 -0.37500000  0.00000000       0.016
   0.00000000 -0.25000000  0.00000000       0.016
   0.12500000 -0.25000000  0.00000000       0.016
   0.25000000 -0.25000000  0.00000000       0.016
   0.37500000 -0.25000000  0.00000000       0.016
   0.50000000 -0.25000000  0.00000000       0.016
  -0.37500000 -0.25000000  0.00000000       0.016
  -0.25000000 -0.25000000  0.00000000       0.016
  -0.12500000 -0.25000000  0.00000000       0.016
   0.00000000 -0.12500000  0.00000000       0.016
   0.12500000 -0.12500000  0.00000000       0.016
   0.25000000 -0.12500000  0.00000000       0.016
   0.37500000 -0.12500000  0.00000000       0.016
   0.50000000 -0.12500000  0.00000000       0.016
  -0.37500000 -0.12500000  0.00000000       0.016
  -0.25000000 -0.12500000  0.00000000       0.016
  -0.12500000 -0.12500000  0.00000000       0.016
 
 position of ions in fractional coordinates (direct lattice) 
   0.00003260  0.49996075  0.16956139
   0.00003230  0.49996081  0.38463917
   0.33336554  0.16662771  0.31010675
   0.66669896  0.83329437  0.23592599
 
 position of ions in cartesian coordinates  (Angst):
  -0.89783155  1.58396168  3.39122782
  -0.89783278  1.58396190  7.69278339
   0.91326370  0.51569480  6.20213491
   0.92831997  2.61560142  4.71851980
 


--------------------------------------------------------------------------------------------------------


 k-point  1 :   0.0000 0.0000 0.0000  plane waves:    4115
 k-point  2 :   0.1250-0.0000 0.0000  plane waves:    4125
 k-point  3 :   0.2500-0.0000 0.0000  plane waves:    4154
 k-point  4 :   0.3750-0.0000 0.0000  plane waves:    4154
 k-point  5 :   0.5000-0.0000 0.0000  plane waves:    4192
 k-point  6 :  -0.3750 0.0000 0.0000  plane waves:    4154
 k-point  7 :  -0.2500 0.0000 0.0000  plane waves:    4154
 k-point  8 :  -0.1250 0.0000 0.0000  plane waves:    4125
 k-point  9 :  -0.0000 0.1250 0.0000  plane waves:    4127
 k-point 10 :   0.1250 0.1250 0.0000  plane waves:    4142
 k-point 11 :   0.2500 0.1250 0.0000  plane waves:    4173
 k-point 12 :   0.3750 0.1250 0.0000  plane waves:    4177
 k-point 13 :   0.5000 0.1250 0.0000  plane waves:    4173
 k-point 14 :  -0.3750 0.1250 0.0000  plane waves:    4172
 k-point 15 :  -0.2500 0.1250 0.0000  plane waves:    4148
 k-point 16 :  -0.1250 0.1250 0.0000  plane waves:    4125
 k-point 17 :  -0.0000 0.2500 0.0000  plane waves:    4158
 k-point 18 :   0.1250 0.2500 0.0000  plane waves:    4175
 k-point 19 :   0.2500 0.2500 0.0000  plane waves:    4182
 k-point 20 :   0.3750 0.2500 0.0000  plane waves:    4194
 k-point 21 :   0.5000 0.2500 0.0000  plane waves:    4182
 k-point 22 :  -0.3750 0.2500 0.0000  plane waves:    4164
 k-point 23 :  -0.2500 0.2500 0.0000  plane waves:    4156
 k-point 24 :  -0.1250 0.2500 0.0000  plane waves:    4150
 k-point 25 :  -0.0000 0.3750 0.0000  plane waves:    4158
 k-point 26 :   0.1250 0.3750 0.0000  plane waves:    4176
 k-point 27 :   0.2500 0.3750 0.0000  plane waves:    4196
 k-point 28 :   0.3750 0.3750 0.0000  plane waves:    4198
 k-point 29 :   0.5000 0.3750 0.0000  plane waves:    4177
 k-point 30 :  -0.3750 0.3750 0.0000  plane waves:    4158
 k-point 31 :  -0.2500 0.3750 0.0000  plane waves:    4159
 k-point 32 :  -0.1250 0.3750 0.0000  plane waves:    4166
 k-point 33 :  -0.0000 0.5000 0.0000  plane waves:    4196
 k-point 34 :   0.1250 0.5000 0.0000  plane waves:    4173
 k-point 35 :   0.2500 0.5000 0.0000  plane waves:    4188
 k-point 36 :   0.3750 0.5000 0.0000  plane waves:    4179
 k-point 37 :   0.5000 0.5000 0.0000  plane waves:    4200
 k-point 38 :  -0.3750 0.5000 0.0000  plane waves:    4179
 k-point 39 :  -0.2500 0.5000 0.0000  plane waves:    4188
 k-point 40 :  -0.1250 0.5000 0.0000  plane waves:    4173
 k-point 41 :   0.0000-0.3750 0.0000  plane waves:    4158
 k-point 42 :   0.1250-0.3750 0.0000  plane waves:    4166
 k-point 43 :   0.2500-0.3750 0.0000  plane waves:    4159
 k-point 44 :   0.3750-0.3750 0.0000  plane waves:    4158
 k-point 45 :   0.5000-0.3750 0.0000  plane waves:    4177
 k-point 46 :  -0.3750-0.3750 0.0000  plane waves:    4198
 k-point 47 :  -0.2500-0.3750 0.0000  plane waves:    4196
 k-point 48 :  -0.1250-0.3750 0.0000  plane waves:    4176
 k-point 49 :   0.0000-0.2500 0.0000  plane waves:    4158
 k-point 50 :   0.1250-0.2500 0.0000  plane waves:    4150
 k-point 51 :   0.2500-0.2500 0.0000  plane waves:    4156
 k-point 52 :   0.3750-0.2500 0.0000  plane waves:    4164
 k-point 53 :   0.5000-0.2500 0.0000  plane waves:    4182
 k-point 54 :  -0.3750-0.2500 0.0000  plane waves:    4194
 k-point 55 :  -0.2500-0.2500 0.0000  plane waves:    4182
 k-point 56 :  -0.1250-0.2500 0.0000  plane waves:    4175
 k-point 57 :   0.0000-0.1250 0.0000  plane waves:    4127
 k-point 58 :   0.1250-0.1250 0.0000  plane waves:    4125
 k-point 59 :   0.2500-0.1250 0.0000  plane waves:    4148
 k-point 60 :   0.3750-0.1250 0.0000  plane waves:    4172
 k-point 61 :   0.5000-0.1250 0.0000  plane waves:    4173
 k-point 62 :  -0.3750-0.1250 0.0000  plane waves:    4177
 k-point 63 :  -0.2500-0.1250 0.0000  plane waves:    4173
 k-point 64 :  -0.1250-0.1250 0.0000  plane waves:    4142

 maximum and minimum number of plane-waves per node :      4200     4115

 maximum number of plane-waves:      4200
 maximum index in each direction: 
   IXMAX=    6   IYMAX=    6   IZMAX=   32
   IXMIN=   -6   IYMIN=   -6   IZMIN=  -32


 serial   3D FFT for wavefunctions
 parallel 3D FFT for charge:
    minimum data exchange during FFTs selected (reduces bandwidth)


 total amount of memory used by VASP MPI-rank0   229611. kBytes
=======================================================================

   base      :      30000. kBytes
   nonl-proj :     116390. kBytes
   fftplans  :      11208. kBytes
   grid      :      23989. kBytes
   one-center:         62. kBytes
   wavefun   :      47962. kBytes
 
     INWAV:  cpu time    0.0000: real time    0.0000
 Broyden mixing: mesh for mixing (old mesh)
   NGX = 11   NGY = 11   NGZ = 65
  (NGX  = 48   NGY  = 48   NGZ  =280)
  gives a total of   7865 points

 initial charge density was supplied:
 charge density of overlapping atoms calculated
 number of electron      34.0000000 magnetization 
 keeping initial charge density in first step


--------------------------------------------------------------------------------------------------------


 Maximum index for augmentation-charges        10335 (set IRDMAX)


--------------------------------------------------------------------------------------------------------


 First call to EWALD:  gamma=   0.290
 Maximum number of real-space cells 5x 5x 1
 Maximum number of reciprocal cells 2x 2x 8

    FEWALD:  cpu time    0.0016: real time    0.0016


--------------------------------------- Iteration      1(   1)  ---------------------------------------


    POTLOK:  cpu time    0.3387: real time    0.3388
    SETDIJ:  cpu time    0.0106: real time    0.0106
     EDDAV:  cpu time    4.3222: real time    4.3224
       DOS:  cpu time    0.0013: real time    0.0013
    --------------------------------------------
      LOOP:  cpu time    4.6728: real time    4.6731

 eigenvalue-minimisations  :  2816
 total energy-change (2. order) : 0.2451595E+03  (-0.1170383E+04)
 number of electron      34.0000000 magnetization 
 augmentation part       34.0000000 magnetization 

 DIPCOR: dipole corrections for dipol
 direction  3 min pos   212,
 dipolmoment           0.000000      0.000000     -0.000024 electrons x Angstroem
 Tr[quadrupol]       -79.476890

 energy correction for charged system         0.000000 eV
 dipol+quadrupol energy correction           -0.000000 eV
 added-field ion interaction          0.000276 eV  (added to PSCEN)


 Free energy of the ion-electron system (eV)
  ---------------------------------------------------
  alpha Z        PSCENC =        42.35800134
  Ewald energy   TEWEN  =      6005.17548584
  -Hartree energ DENC   =     -8193.73924136
  -exchange      EXHF   =         0.00000000
  -V(xc)+E(xc)   XCENC  =        37.25830624
  PAW double counting   =      2012.60260865    -1949.97488812
  entropy T*S    EENTRO =        -0.00866349
  eigenvalues    EBANDS =        55.10140122
  atomic energy  EATOM  =      2236.38650011
  Solvation  Ediel_sol  =         0.00000000
  ---------------------------------------------------
  free energy    TOTEN  =       245.15951043 eV

  energy without entropy =      245.16817392  energy(sigma->0) =      245.16384217


--------------------------------------------------------------------------------------------------------




--------------------------------------- Iteration      1(   2)  ---------------------------------------


     EDDAV:  cpu time    5.5788: real time    5.5860
       DOS:  cpu time    0.0011: real time    0.0011
    --------------------------------------------
      LOOP:  cpu time    5.5799: real time    5.5871

 eigenvalue-minimisations  :  4148
 total energy-change (2. order) :-0.2399217E+03  (-0.2281263E+03)
 number of electron      34.0000000 magnetization 
 augmentation part       34.0000000 magnetization 

 DIPCOR: dipole corrections for dipol
 direction  3 min pos   212,
 dipolmoment           0.000000      0.000000     -0.000024 electrons x Angstroem
 Tr[quadrupol]       -79.476890

 energy correction for charged system         0.000000 eV
 dipol+quadrupol energy correction           -0.000000 eV
 added-field ion interaction          0.000276 eV  (added to PSCEN)


 Free energy of the ion-electron system (eV)
  ---------------------------------------------------
  alpha Z        PSCENC =        42.35800134
  Ewald energy   TEWEN  =      6005.17548584
  -Hartree energ DENC   =     -8193.73924136
  -exchange      EXHF   =         0.00000000
  -V(xc)+E(xc)   XCENC  =        37.25830624
  PAW double counting   =      2012.60260865    -1949.97488812
  entropy T*S    EENTRO =        -0.00302310
  eigenvalues    EBANDS =      -184.82589243
  atomic energy  EATOM  =      2236.38650011
  Solvation  Ediel_sol  =         0.00000000
  ---------------------------------------------------
  free energy    TOTEN  =         5.23785718 eV

  energy without entropy =        5.24088027  energy(sigma->0) =        5.23936872


--------------------------------------------------------------------------------------------------------




--------------------------------------- Iteration      1(   3)  ---------------------------------------


     EDDAV:  cpu time    4.7077: real time    4.7081
       DOS:  cpu time    0.0007: real time    0.0007
    --------------------------------------------
      LOOP:  cpu time    4.7084: real time    4.7088

 eigenvalue-minimisations  :  3370
 total energy-change (2. order) :-0.2216631E+02  (-0.2175355E+02)
 number of electron      34.0000000 magnetization 
 augmentation part       34.0000000 magnetization 

 DIPCOR: dipole corrections for dipol
 direction  3 min pos   212,
 dipolmoment           0.000000      0.000000     -0.000024 electrons x Angstroem
 Tr[quadrupol]       -79.476890

 energy correction for charged system         0.000000 eV
 dipol+quadrupol energy correction           -0.000000 eV
 added-field ion interaction          0.000276 eV  (added to PSCEN)


 Free energy of the ion-electron system (eV)
  ---------------------------------------------------
  alpha Z        PSCENC =        42.35800134
  Ewald energy   TEWEN  =      6005.17548584
  -Hartree energ DENC   =     -8193.73924136
  -exchange      EXHF   =         0.00000000
  -V(xc)+E(xc)   XCENC  =        37.25830624
  PAW double counting   =      2012.60260865    -1949.97488812
  entropy T*S    EENTRO =        -0.00000000
  eigenvalues    EBANDS =      -206.99522966
  atomic energy  EATOM  =      2236.38650011
  Solvation  Ediel_sol  =         0.00000000
  ---------------------------------------------------
  free energy    TOTEN  =       -16.92845696 eV

  energy without entropy =      -16.92845696  energy(sigma->0) =      -16.92845696


--------------------------------------------------------------------------------------------------------




--------------------------------------- Iteration      1(   4)  ---------------------------------------


     EDDAV:  cpu time    4.7907: real time    4.7911
       DOS:  cpu time    0.0007: real time    0.0006
    --------------------------------------------
      LOOP:  cpu time    4.7914: real time    4.7918

 eigenvalue-minimisations  :  3556
 total energy-change (2. order) :-0.5166184E+00  (-0.5146573E+00)
 number of electron      34.0000000 magnetization 
 augmentation part       34.0000000 magnetization 

 DIPCOR: dipole corrections for dipol
 direction  3 min pos   212,
 dipolmoment           0.000000      0.000000     -0.000024 electrons x Angstroem
 Tr[quadrupol]       -79.476890

 energy correction for charged system         0.000000 eV
 dipol+quadrupol energy correction           -0.000000 eV
 added-field ion interaction          0.000276 eV  (added to PSCEN)


 Free energy of the ion-electron system (eV)
  ---------------------------------------------------
  alpha Z        PSCENC =        42.35800134
  Ewald energy   TEWEN  =      6005.17548584
  -Hartree energ DENC   =     -8193.73924136
  -exchange      EXHF   =         0.00000000
  -V(xc)+E(xc)   XCENC  =        37.25830624
  PAW double counting   =      2012.60260865    -1949.97488812
  entropy T*S    EENTRO =        -0.00000000
  eigenvalues    EBANDS =      -207.51184804
  atomic energy  EATOM  =      2236.38650011
  Solvation  Ediel_sol  =         0.00000000
  ---------------------------------------------------
  free energy    TOTEN  =       -17.44507534 eV

  energy without entropy =      -17.44507534  energy(sigma->0) =      -17.44507534


--------------------------------------------------------------------------------------------------------




--------------------------------------- Iteration      1(   5)  ---------------------------------------


     EDDAV:  cpu time    4.6199: real time    4.6204
       DOS:  cpu time    0.0007: real time    0.0007
    CHARGE:  cpu time    0.3632: real time    0.3633
    MIXING:  cpu time    0.0107: real time    0.0107
    --------------------------------------------
      LOOP:  cpu time    4.9945: real time    4.9951

 eigenvalue-minimisations  :  3396
 total energy-change (2. order) :-0.1235720E-01  (-0.1235484E-01)
 number of electron      34.0000003 magnetization 
 augmentation part        3.4226454 magnetization 

 DIPCOR: dipole corrections for dipol
 direction  3 min pos   212,
 dipolmoment           0.000000      0.000000     -0.000024 electrons x Angstroem
 Tr[quadrupol]       -79.476890

 energy correction for charged system         0.000000 eV
 dipol+quadrupol energy correction           -0.000000 eV
 added-field ion interaction          0.000276 eV  (added to PSCEN)


 Broyden mixing:
  rms(total) = 0.16226E+01    rms(broyden)= 0.16225E+01
  rms(prec ) = 0.16460E+01
  weight for this iteration     100.00

 Free energy of the ion-electron system (eV)
  ---------------------------------------------------
  alpha Z        PSCENC =        42.35800134
  Ewald energy   TEWEN  =      6005.17548584
  -Hartree energ DENC   =     -8193.73924136
  -exchange      EXHF   =         0.00000000
  -V(xc)+E(xc)   XCENC  =        37.25830624
  PAW double counting   =      2012.60260865    -1949.97488812
  entropy T*S    EENTRO =        -0.00000000
  eigenvalues    EBANDS =      -207.52420524
  atomic energy  EATOM  =      2236.38650011
  Solvation  Ediel_sol  =         0.00000000
  ---------------------------------------------------
  free energy    TOTEN  =       -17.45743254 eV

  energy without entropy =      -17.45743254  energy(sigma->0) =      -17.45743254


--------------------------------------------------------------------------------------------------------




--------------------------------------- Iteration      1(   6)  ---------------------------------------


    POTLOK:  cpu time    0.3194: real time    0.3195
    SETDIJ:  cpu time    0.0104: real time    0.0104
     EDDAV:  cpu time    4.4436: real time    4.4439
       DOS:  cpu time    0.0007: real time    0.0007
    CHARGE:  cpu time    0.3577: real time    0.3577
    MIXING:  cpu time    0.0110: real time    0.0110
    --------------------------------------------
      LOOP:  cpu time    5.1427: real time    5.1431

 eigenvalue-minimisations  :  3454
 total energy-change (2. order) : 0.8564901E+00  (-0.2330506E+00)
 number of electron      34.0000003 magnetization 
 augmentation part        3.8376996 magnetization 

 DIPCOR: dipole corrections for dipol
 direction  3 min pos   215,
 dipolmoment           0.000000      0.000000     -0.033698 electrons x Angstroem
 Tr[quadrupol]       -79.438196

 energy correction for charged system         0.000000 eV
 dipol+quadrupol energy correction           -0.000448 eV
 added-field ion interaction          0.188407 eV  (added to PSCEN)


 Broyden mixing:
  rms(total) = 0.90514E+00    rms(broyden)= 0.90513E+00
  rms(prec ) = 0.90960E+00
  weight for this iteration     100.00

 eigenvalues of (default mixing * dielectric matrix)
  average eigenvalue GAMMA=   1.8786
  1.8786

 Free energy of the ion-electron system (eV)
  ---------------------------------------------------
  alpha Z        PSCENC =        42.54568375
  Ewald energy   TEWEN  =      6005.17548584
  -Hartree energ DENC   =     -8178.40506985
  -exchange      EXHF   =         0.00000000
  -V(xc)+E(xc)   XCENC  =        36.96415781
  PAW double counting   =      2288.81020541    -2229.31122627
  entropy T*S    EENTRO =        -0.00000000
  eigenvalues    EBANDS =      -218.76667923
  atomic energy  EATOM  =      2236.38650011
  Solvation  Ediel_sol  =         0.00000000
  ---------------------------------------------------
  free energy    TOTEN  =       -16.60094242 eV

  energy without entropy =      -16.60094242  energy(sigma->0) =      -16.60094242


--------------------------------------------------------------------------------------------------------




--------------------------------------- Iteration      1(   7)  ---------------------------------------


    POTLOK:  cpu time    0.3133: real time    0.3133
    SETDIJ:  cpu time    0.0103: real time    0.0103
     EDDAV:  cpu time    4.3025: real time    4.3028
       DOS:  cpu time    0.0006: real time    0.0006
    CHARGE:  cpu time    0.3554: real time    0.3555
    MIXING:  cpu time    0.0110: real time    0.0110
    --------------------------------------------
      LOOP:  cpu time    4.9930: real time    4.9935

 eigenvalue-minimisations  :  3314
 total energy-change (2. order) : 0.4858759E-02  (-0.5794473E-01)
 number of electron      34.0000003 magnetization 
 augmentation part        3.8150535 magnetization 

 DIPCOR: dipole corrections for dipol
 direction  3 min pos   208,
 dipolmoment           0.000000      0.000000     -0.003854 electrons x Angstroem
 Tr[quadrupol]       -79.674402

 energy correction for charged system         0.000000 eV
 dipol+quadrupol energy correction           -0.000006 eV
 added-field ion interaction          0.073291 eV  (added to PSCEN)


 Broyden mixing:
  rms(total) = 0.30827E+00    rms(broyden)= 0.30826E+00
  rms(prec ) = 0.32837E+00
  weight for this iteration     100.00

 eigenvalues of (default mixing * dielectric matrix)
  average eigenvalue GAMMA=   1.5682
  0.8377  2.2986

 Free energy of the ion-electron system (eV)
  ---------------------------------------------------
  alpha Z        PSCENC =        42.43101077
  Ewald energy   TEWEN  =      6005.17548584
  -Hartree energ DENC   =     -8182.98525210
  -exchange      EXHF   =         0.00000000
  -V(xc)+E(xc)   XCENC  =        36.88315590
  PAW double counting   =      2621.01297264    -2563.74496766
  entropy T*S    EENTRO =        -0.00000000
  eigenvalues    EBANDS =      -211.75498916
  atomic energy  EATOM  =      2236.38650011
  Solvation  Ediel_sol  =         0.00000000
  ---------------------------------------------------
  free energy    TOTEN  =       -16.59608366 eV

  energy without entropy =      -16.59608366  energy(sigma->0) =      -16.59608366


--------------------------------------------------------------------------------------------------------




--------------------------------------- Iteration      1(   8)  ---------------------------------------


    POTLOK:  cpu time    0.3154: real time    0.3154
    SETDIJ:  cpu time    0.0106: real time    0.0106
     EDDAV:  cpu time    4.6815: real time    4.6819
       DOS:  cpu time    0.0007: real time    0.0007
    CHARGE:  cpu time    0.3648: real time    0.3648
    MIXING:  cpu time    0.0111: real time    0.0111
    --------------------------------------------
      LOOP:  cpu time    5.3840: real time    5.3845

 eigenvalue-minimisations  :  3488
 total energy-change (2. order) :-0.5026650E-01  (-0.4388466E-01)
 number of electron      34.0000003 magnetization 
 augmentation part        3.8223942 magnetization 

 DIPCOR: dipole corrections for dipol
 direction  3 min pos   218,
 dipolmoment           0.000000      0.000000     -0.069800 electrons x Angstroem
 Tr[quadrupol]       -79.674555

 energy correction for charged system         0.000000 eV
 dipol+quadrupol energy correction           -0.001924 eV
 added-field ion interaction         -0.011320 eV  (added to PSCEN)


 Broyden mixing:
  rms(total) = 0.24800E+00    rms(broyden)= 0.24799E+00
  rms(prec ) = 0.29861E+00
  weight for this iteration     100.00

 eigenvalues of (default mixing * dielectric matrix)
  average eigenvalue GAMMA=   1.2635
  2.4253  0.9580  0.4073

 Free energy of the ion-electron system (eV)
  ---------------------------------------------------
  alpha Z        PSCENC =        42.34448193
  Ewald energy   TEWEN  =      6005.17548584
  -Hartree energ DENC   =     -8182.38241233
  -exchange      EXHF   =         0.00000000
  -V(xc)+E(xc)   XCENC  =        36.90226873
  PAW double counting   =      2735.07407137    -2678.45694570
  entropy T*S    EENTRO =        -0.00000000
  eigenvalues    EBANDS =      -211.68980010
  atomic energy  EATOM  =      2236.38650011
  Solvation  Ediel_sol  =         0.00000000
  ---------------------------------------------------
  free energy    TOTEN  =       -16.64635016 eV

  energy without entropy =      -16.64635016  energy(sigma->0) =      -16.64635016


--------------------------------------------------------------------------------------------------------




--------------------------------------- Iteration      1(   9)  ---------------------------------------


    POTLOK:  cpu time    0.3105: real time    0.3105
    SETDIJ:  cpu time    0.0168: real time    0.0168
     EDDAV:  cpu time    4.6434: real time    4.6438
       DOS:  cpu time    0.0007: real time    0.0007
    CHARGE:  cpu time    0.3665: real time    0.3665
    MIXING:  cpu time    0.0112: real time    0.0112
    --------------------------------------------
      LOOP:  cpu time    5.3491: real time    5.3495

 eigenvalue-minimisations  :  3434
 total energy-change (2. order) : 0.1006799E+00  (-0.1582296E-01)
 number of electron      34.0000003 magnetization 
 augmentation part        3.8465577 magnetization 

 DIPCOR: dipole corrections for dipol
 direction  3 min pos   210,
 dipolmoment           0.000000      0.000000     -0.024620 electrons x Angstroem
 Tr[quadrupol]       -79.689970

 energy correction for charged system         0.000000 eV
 dipol+quadrupol energy correction           -0.000239 eV
 added-field ion interaction          0.373720 eV  (added to PSCEN)


 Broyden mixing:
  rms(total) = 0.41952E-01    rms(broyden)= 0.41932E-01
  rms(prec ) = 0.44922E-01
  weight for this iteration     100.00

 eigenvalues of (default mixing * dielectric matrix)
  average eigenvalue GAMMA=   1.2990
  2.4913  1.4150  0.8955  0.3944

 Free energy of the ion-electron system (eV)
  ---------------------------------------------------
  alpha Z        PSCENC =        42.73120593
  Ewald energy   TEWEN  =      6005.17548584
  -Hartree energ DENC   =     -8181.46630753
  -exchange      EXHF   =         0.00000000
  -V(xc)+E(xc)   XCENC  =        36.91136442
  PAW double counting   =      2760.14906188    -2703.64933232
  entropy T*S    EENTRO =        -0.00000000
  eigenvalues    EBANDS =      -212.78364857
  atomic energy  EATOM  =      2236.38650011
  Solvation  Ediel_sol  =         0.00000000
  ---------------------------------------------------
  free energy    TOTEN  =       -16.54567024 eV

  energy without entropy =      -16.54567024  energy(sigma->0) =      -16.54567024


--------------------------------------------------------------------------------------------------------




--------------------------------------- Iteration      1(  10)  ---------------------------------------


    POTLOK:  cpu time    0.2963: real time    0.2963
    SETDIJ:  cpu time    0.0095: real time    0.0095
     EDDAV:  cpu time    4.3822: real time    4.3825
       DOS:  cpu time    0.0007: real time    0.0007
    CHARGE:  cpu time    0.3667: real time    0.3668
    MIXING:  cpu time    0.0114: real time    0.0114
    --------------------------------------------
      LOOP:  cpu time    5.0667: real time    5.0672

 eigenvalue-minimisations  :  3198
 total energy-change (2. order) : 0.1616843E-02  (-0.2448202E-02)
 number of electron      34.0000003 magnetization 
 augmentation part        3.8447346 magnetization 

 DIPCOR: dipole corrections for dipol
 direction  3 min pos   206,
 dipolmoment           0.000000      0.000000     -0.031523 electrons x Angstroem
 Tr[quadrupol]       -79.706913

 energy correction for charged system         0.000000 eV
 dipol+quadrupol energy correction           -0.000392 eV
 added-field ion interaction          0.720321 eV  (added to PSCEN)


 Broyden mixing:
  rms(total) = 0.15774E-01    rms(broyden)= 0.15773E-01
  rms(prec ) = 0.18003E-01
  weight for this iteration     100.00

 eigenvalues of (default mixing * dielectric matrix)
  average eigenvalue GAMMA=   1.2297
  2.4738  1.5076  0.8919  0.8919  0.3830

 Free energy of the ion-electron system (eV)
  ---------------------------------------------------
  alpha Z        PSCENC =        43.07765410
  Ewald energy   TEWEN  =      6005.17548584
  -Hartree energ DENC   =     -8181.70141183
  -exchange      EXHF   =         0.00000000
  -V(xc)+E(xc)   XCENC  =        36.94732872
  PAW double counting   =      2769.30083071    -2712.76648127
  entropy T*S    EENTRO =        -0.00000000
  eigenvalues    EBANDS =      -212.96395978
  atomic energy  EATOM  =      2236.38650011
  Solvation  Ediel_sol  =         0.00000000
  ---------------------------------------------------
  free energy    TOTEN  =       -16.54405339 eV

  energy without entropy =      -16.54405339  energy(sigma->0) =      -16.54405339


--------------------------------------------------------------------------------------------------------




--------------------------------------- Iteration      1(  11)  ---------------------------------------


    POTLOK:  cpu time    0.2983: real time    0.2983
    SETDIJ:  cpu time    0.0097: real time    0.0096
     EDDAV:  cpu time    4.5560: real time    4.5564
       DOS:  cpu time    0.0007: real time    0.0007
    CHARGE:  cpu time    0.3592: real time    0.3593
    MIXING:  cpu time    0.0167: real time    0.0167
    --------------------------------------------
      LOOP:  cpu time    5.2406: real time    5.2410

 eigenvalue-minimisations  :  3380
 total energy-change (2. order) : 0.3015048E-04  (-0.2288211E-03)
 number of electron      34.0000003 magnetization 
 augmentation part        3.8413629 magnetization 

 DIPCOR: dipole corrections for dipol
 direction  3 min pos   219,
 dipolmoment           0.000000      0.000000     -0.036193 electrons x Angstroem
 Tr[quadrupol]       -79.651352

 energy correction for charged system         0.000000 eV
 dipol+quadrupol energy correction           -0.000517 eV
 added-field ion interaction         -0.075278 eV  (added to PSCEN)


 Broyden mixing:
  rms(total) = 0.99149E-02    rms(broyden)= 0.99143E-02
  rms(prec ) = 0.11149E-01
  weight for this iteration     100.00

 eigenvalues of (default mixing * dielectric matrix)
  average eigenvalue GAMMA=   1.2006
  2.4327  1.8160  0.3852  0.9475  0.8111  0.8111

 Free energy of the ion-electron system (eV)
  ---------------------------------------------------
  alpha Z        PSCENC =        42.28193012
  Ewald energy   TEWEN  =      6005.17548584
  -Hartree energ DENC   =     -8182.07093764
  -exchange      EXHF   =         0.00000000
  -V(xc)+E(xc)   XCENC  =        36.95423170
  PAW double counting   =      2767.73383055    -2711.18417282
  entropy T*S    EENTRO =        -0.00000000
  eigenvalues    EBANDS =      -211.82089111
  atomic energy  EATOM  =      2236.38650011
  Solvation  Ediel_sol  =         0.00000000
  ---------------------------------------------------
  free energy    TOTEN  =       -16.54402324 eV

  energy without entropy =      -16.54402324  energy(sigma->0) =      -16.54402324


--------------------------------------------------------------------------------------------------------




--------------------------------------- Iteration      1(  12)  ---------------------------------------


    POTLOK:  cpu time    0.2911: real time    0.2911
    SETDIJ:  cpu time    0.0071: real time    0.0071
     EDDAV:  cpu time    5.4110: real time    5.4114
       DOS:  cpu time    0.0007: real time    0.0007
    CHARGE:  cpu time    0.3675: real time    0.3676
    MIXING:  cpu time    0.0117: real time    0.0117
    --------------------------------------------
      LOOP:  cpu time    6.0890: real time    6.0895

 eigenvalue-minimisations  :  4400
 total energy-change (2. order) : 0.4485609E-04  (-0.1349433E-04)
 number of electron      34.0000003 magnetization 
 augmentation part        3.8406591 magnetization 

 DIPCOR: dipole corrections for dipol
 direction  3 min pos   226,
 dipolmoment           0.000000      0.000000     -0.037284 electrons x Angstroem
 Tr[quadrupol]       -79.619683

 energy correction for charged system         0.000000 eV
 dipol+quadrupol energy correction           -0.000549 eV
 added-field ion interaction         -0.578061 eV  (added to PSCEN)


 Broyden mixing:
  rms(total) = 0.54856E-02    rms(broyden)= 0.54855E-02
  rms(prec ) = 0.61991E-02
  weight for this iteration     100.00

 eigenvalues of (default mixing * dielectric matrix)
  average eigenvalue GAMMA=   1.3012
  2.3914  2.1524  1.4674  0.3849  0.9295  0.9295  0.8533

 Free energy of the ion-electron system (eV)
  ---------------------------------------------------
  alpha Z        PSCENC =        41.77911592
  Ewald energy   TEWEN  =      6005.17548584
  -Hartree energ DENC   =     -8182.22872104
  -exchange      EXHF   =         0.00000000
  -V(xc)+E(xc)   XCENC  =        36.95725312
  PAW double counting   =      2765.82621687    -2709.26808007
  entropy T*S    EENTRO =        -0.00000000
  eigenvalues    EBANDS =      -211.17174914
  atomic energy  EATOM  =      2236.38650011
  Solvation  Ediel_sol  =         0.00000000
  ---------------------------------------------------
  free energy    TOTEN  =       -16.54397839 eV

  energy without entropy =      -16.54397839  energy(sigma->0) =      -16.54397839


--------------------------------------------------------------------------------------------------------




--------------------------------------- Iteration      1(  13)  ---------------------------------------


    POTLOK:  cpu time    0.2885: real time    0.2886
    SETDIJ:  cpu time    0.0092: real time    0.0092
     EDDAV:  cpu time    5.0647: real time    5.0651
       DOS:  cpu time    0.0005: real time    0.0005
    CHARGE:  cpu time    0.3132: real time    0.3132
    MIXING:  cpu time    0.0095: real time    0.0095
    --------------------------------------------
      LOOP:  cpu time    5.6856: real time    5.6861

 eigenvalue-minimisations  :  3860
 total energy-change (2. order) :-0.1621111E-04  (-0.1755845E-04)
 number of electron      34.0000003 magnetization 
 augmentation part        3.8414455 magnetization 

 DIPCOR: dipole corrections for dipol
 direction  3 min pos   230,
 dipolmoment           0.000000      0.000000     -0.036100 electrons x Angstroem
 Tr[quadrupol]       -79.609859

 energy correction for charged system         0.000000 eV
 dipol+quadrupol energy correction           -0.000515 eV
 added-field ion interaction         -0.836625 eV  (added to PSCEN)


 Broyden mixing:
  rms(total) = 0.23209E-02    rms(broyden)= 0.23206E-02
  rms(prec ) = 0.30681E-02
  weight for this iteration     100.00

 eigenvalues of (default mixing * dielectric matrix)
  average eigenvalue GAMMA=   1.3299
  2.6170  2.5303  0.3848  1.3011  1.0541  0.9596  0.8959  0.8959

 Free energy of the ion-electron system (eV)
  ---------------------------------------------------
  alpha Z        PSCENC =        41.52058541
  Ewald energy   TEWEN  =      6005.17548584
  -Hartree energ DENC   =     -8182.52330565
  -exchange      EXHF   =         0.00000000
  -V(xc)+E(xc)   XCENC  =        36.96090953
  PAW double counting   =      2762.57754946    -2706.01723693
  entropy T*S    EENTRO =        -0.00000000
  eigenvalues    EBANDS =      -210.62448236
  atomic energy  EATOM  =      2236.38650011
  Solvation  Ediel_sol  =         0.00000000
  ---------------------------------------------------
  free energy    TOTEN  =       -16.54399460 eV

  energy without entropy =      -16.54399460  energy(sigma->0) =      -16.54399460


--------------------------------------------------------------------------------------------------------




--------------------------------------- Iteration      1(  14)  ---------------------------------------


    POTLOK:  cpu time    0.2886: real time    0.2886
    SETDIJ:  cpu time    0.0071: real time    0.0071
     EDDAV:  cpu time    4.2680: real time    4.2684
       DOS:  cpu time    0.0005: real time    0.0005
    CHARGE:  cpu time    0.3629: real time    0.3629
    MIXING:  cpu time    0.0120: real time    0.0120
    --------------------------------------------
      LOOP:  cpu time    4.9391: real time    4.9395

 eigenvalue-minimisations  :  3272
 total energy-change (2. order) :-0.1602150E-04  (-0.6941460E-05)
 number of electron      34.0000003 magnetization 
 augmentation part        3.8410819 magnetization 

 DIPCOR: dipole corrections for dipol
 direction  3 min pos   231,
 dipolmoment           0.000000      0.000000     -0.036440 electrons x Angstroem
 Tr[quadrupol]       -79.608200

 energy correction for charged system         0.000000 eV
 dipol+quadrupol energy correction           -0.000524 eV
 added-field ion interaction         -0.914381 eV  (added to PSCEN)


 Broyden mixing:
  rms(total) = 0.24717E-02    rms(broyden)= 0.24717E-02
  rms(prec ) = 0.26114E-02
  weight for this iteration     100.00

 eigenvalues of (default mixing * dielectric matrix)
  average eigenvalue GAMMA=   1.2743
  2.5701  2.5701  1.4141  0.9502  0.9502  1.0181  1.0181  0.3848  0.5928

 Free energy of the ion-electron system (eV)
  ---------------------------------------------------
  alpha Z        PSCENC =        41.44281965
  Ewald energy   TEWEN  =      6005.17548584
  -Hartree energ DENC   =     -8182.69524553
  -exchange      EXHF   =         0.00000000
  -V(xc)+E(xc)   XCENC  =        36.96326334
  PAW double counting   =      2761.95356662    -2705.39160671
  entropy T*S    EENTRO =        -0.00000000
  eigenvalues    EBANDS =      -210.37879393
  atomic energy  EATOM  =      2236.38650011
  Solvation  Ediel_sol  =         0.00000000
  ---------------------------------------------------
  free energy    TOTEN  =       -16.54401062 eV

  energy without entropy =      -16.54401062  energy(sigma->0) =      -16.54401062


--------------------------------------------------------------------------------------------------------




--------------------------------------- Iteration      1(  15)  ---------------------------------------


    POTLOK:  cpu time    0.3142: real time    0.3143
    SETDIJ:  cpu time    0.0095: real time    0.0095
     EDDAV:  cpu time    4.7342: real time    4.7345
       DOS:  cpu time    0.0005: real time    0.0005
    CHARGE:  cpu time    0.3135: real time    0.3135
    MIXING:  cpu time    0.0097: real time    0.0097
    --------------------------------------------
      LOOP:  cpu time    5.3817: real time    5.3821

 eigenvalue-minimisations  :  3558
 total energy-change (2. order) :-0.1058020E-04  (-0.9204153E-06)
 number of electron      34.0000003 magnetization 
 augmentation part        3.8411299 magnetization 

 DIPCOR: dipole corrections for dipol
 direction  3 min pos   232,
 dipolmoment           0.000000      0.000000     -0.036451 electrons x Angstroem
 Tr[quadrupol]       -79.604454

 energy correction for charged system         0.000000 eV
 dipol+quadrupol energy correction           -0.000525 eV
 added-field ion interaction         -0.984556 eV  (added to PSCEN)


 Broyden mixing:
  rms(total) = 0.15275E-02    rms(broyden)= 0.15275E-02
  rms(prec ) = 0.16508E-02
  weight for this iteration     100.00

 eigenvalues of (default mixing * dielectric matrix)
  average eigenvalue GAMMA=   1.3186
  2.6331  2.1166  2.1166  0.3848  1.0215  1.0215  1.2072  0.7941  0.9456  0.9456

 Free energy of the ion-electron system (eV)
  ---------------------------------------------------
  alpha Z        PSCENC =        41.37264527
  Ewald energy   TEWEN  =      6005.17548584
  -Hartree energ DENC   =     -8182.74342871
  -exchange      EXHF   =         0.00000000
  -V(xc)+E(xc)   XCENC  =        36.96370643
  PAW double counting   =      2761.73238652    -2705.17028641
  entropy T*S    EENTRO =        -0.00000000
  eigenvalues    EBANDS =      -210.26103025
  atomic energy  EATOM  =      2236.38650011
  Solvation  Ediel_sol  =         0.00000000
  ---------------------------------------------------
  free energy    TOTEN  =       -16.54402120 eV

  energy without entropy =      -16.54402120  energy(sigma->0) =      -16.54402120


--------------------------------------------------------------------------------------------------------




--------------------------------------- Iteration      1(  16)  ---------------------------------------


    POTLOK:  cpu time    0.2906: real time    0.2906
    SETDIJ:  cpu time    0.0073: real time    0.0073
     EDDAV:  cpu time    4.1892: real time    4.1896
       DOS:  cpu time    0.0005: real time    0.0005
    CHARGE:  cpu time    0.3571: real time    0.3571
    MIXING:  cpu time    0.0121: real time    0.0121
    --------------------------------------------
      LOOP:  cpu time    4.8569: real time    4.8574

 eigenvalue-minimisations  :  3194
 total energy-change (2. order) :-0.2141475E-04  (-0.3922079E-06)
 number of electron      34.0000003 magnetization 
 augmentation part        3.8411323 magnetization 

 DIPCOR: dipole corrections for dipol
 direction  3 min pos   232,
 dipolmoment           0.000000      0.000000     -0.036212 electrons x Angstroem
 Tr[quadrupol]       -79.606893

 energy correction for charged system         0.000000 eV
 dipol+quadrupol energy correction           -0.000518 eV
 added-field ion interaction         -0.978118 eV  (added to PSCEN)


 Broyden mixing:
  rms(total) = 0.52694E-03    rms(broyden)= 0.52691E-03
  rms(prec ) = 0.71622E-03
  weight for this iteration     100.00

 eigenvalues of (default mixing * dielectric matrix)
  average eigenvalue GAMMA=   1.3330
  2.6109  2.6109  1.6700  1.6700  0.3848  1.0450  1.0450  0.9752  0.9752  0.9601
  0.7159

 Free energy of the ion-electron system (eV)
  ---------------------------------------------------
  alpha Z        PSCENC =        41.37908930
  Ewald energy   TEWEN  =      6005.17548584
  -Hartree energ DENC   =     -8182.83232181
  -exchange      EXHF   =         0.00000000
  -V(xc)+E(xc)   XCENC  =        36.96427347
  PAW double counting   =      2761.88636896    -2705.32611390
  entropy T*S    EENTRO =        -0.00000000
  eigenvalues    EBANDS =      -210.17732458
  atomic energy  EATOM  =      2236.38650011
  Solvation  Ediel_sol  =         0.00000000
  ---------------------------------------------------
  free energy    TOTEN  =       -16.54404262 eV

  energy without entropy =      -16.54404262  energy(sigma->0) =      -16.54404262


--------------------------------------------------------------------------------------------------------




--------------------------------------- Iteration      1(  17)  ---------------------------------------


    POTLOK:  cpu time    0.3141: real time    0.3142
    SETDIJ:  cpu time    0.0094: real time    0.0094
     EDDAV:  cpu time    4.6065: real time    4.6068
       DOS:  cpu time    0.0007: real time    0.0007
    CHARGE:  cpu time    0.3660: real time    0.3660
    MIXING:  cpu time    0.0126: real time    0.0126
    --------------------------------------------
      LOOP:  cpu time    5.3093: real time    5.3097

 eigenvalue-minimisations  :  3410
 total energy-change (2. order) :-0.1939045E-04  (-0.2014850E-06)
 number of electron      34.0000003 magnetization 
 augmentation part        3.8411553 magnetization 

 DIPCOR: dipole corrections for dipol
 direction  3 min pos   232,
 dipolmoment           0.000000      0.000000     -0.035846 electrons x Angstroem
 Tr[quadrupol]       -79.609810

 energy correction for charged system         0.000000 eV
 dipol+quadrupol energy correction           -0.000507 eV
[...]
  band No.  band energies     occupation 
      1     -17.3798      2.00000
      2     -17.2556      2.00000
      3      -7.7488      2.00000
      4      -7.0684      2.00000
      5      -6.7662      2.00000
      6      -6.6288      2.00000
      7      -6.2848      2.00000
      8      -5.5101      2.00000
      9      -5.1521      2.00000
     10      -4.7203      2.00000
     11      -4.4621      2.00000
     12      -3.1028      2.00000
     13      -2.9188      2.00000
     14      -2.9121      2.00000
     15      -2.2730      2.00000
     16      -2.2476      2.00000
     17      -1.9684      2.00000
     18      -0.1906      0.00000
     19       0.2958      0.00000
     20       3.6265      0.00000
     21       4.0275      0.00000
     22       4.5441      0.00000

 k-point    52 :       0.3750   -0.2500    0.0000
  band No.  band energies     occupation 
      1     -17.2685      2.00000
      2     -17.1203      2.00000
      3      -7.6920      2.00000
      4      -7.1690      2.00000
      5      -6.6638      2.00000
      6      -6.5095      2.00000
      7      -6.3025      2.00000
      8      -5.7336      2.00000
      9      -5.2135      2.00000
     10      -4.9641      2.00000
     11      -4.0302      2.00000
     12      -3.6087      2.00000
     13      -2.9936      2.00000
     14      -2.7017      2.00000
     15      -2.4545      2.00000
     16      -2.3898      2.00000
     17      -2.1273      2.00000
     18      -0.3456      0.00000
     19       0.9434      0.00000
     20       3.4262      0.00000
     21       4.5742      0.00000
     22       4.9997      0.00000

 k-point    53 :       0.5000   -0.2500    0.0000
  band No.  band energies     occupation 
      1     -17.1603      2.00000
      2     -16.9732      2.00000
      3      -7.5404      2.00000
      4      -7.0852      2.00000
      5      -7.0178      2.00000
      6      -6.3266      2.00000
      7      -6.1982      2.00000
      8      -5.8713      2.00000
      9      -5.3770      2.00000
     10      -5.1494      2.00000
     11      -3.8134      2.00000
     12      -3.4282      2.00000
     13      -3.2043      2.00000
     14      -2.9955      2.00000
     15      -2.9316      2.00000
     16      -2.3433      2.00000
     17      -2.0191      2.00000
     18      -0.2610      0.00000
     19       1.3257      0.00000
     20       3.0849      0.00000
     21       4.6159      0.00000
     22       5.5726      0.00000

 k-point    54 :      -0.3750   -0.2500    0.0000
  band No.  band energies     occupation 
      1     -17.1152      2.00000
      2     -16.9092      2.00000
      3      -7.2925      2.00000
      4      -7.2799      2.00000
      5      -6.8792      2.00000
      6      -6.6230      2.00000
      7      -6.3898      2.00000
      8      -5.6908      2.00000
      9      -5.3688      2.00000
     10      -4.7906      2.00000
     11      -4.2497      2.00000
     12      -3.6522      2.00000
     13      -3.3435      2.00000
     14      -2.9877      2.00000
     15      -2.6217      2.00000
     16      -2.3317      2.00000
     17      -2.0785      2.00000
     18      -0.1042      0.00000
     19       1.4945      0.00000
     20       2.4272      0.00000
     21       5.1429      0.00000
     22       5.5199      0.00000

 k-point    55 :      -0.2500   -0.2500    0.0000
  band No.  band energies     occupation 
      1     -17.1593      2.00000
      2     -16.9718      2.00000
      3      -7.5436      2.00000
      4      -7.0883      2.00000
      5      -7.0170      2.00000
      6      -6.3283      2.00000
      7      -6.2002      2.00000
      8      -5.8699      2.00000
      9      -5.3754      2.00000
     10      -5.1490      2.00000
     11      -3.8102      2.00000
     12      -3.4303      2.00000
     13      -3.1968      2.00000
     14      -2.9925      2.00000
     15      -2.9294      2.00000
     16      -2.3458      2.00000
     17      -2.0190      2.00000
     18      -0.2613      0.00000
     19       1.3285      0.00000
     20       3.0837      0.00000
     21       4.6102      0.00000
     22       5.5674      0.00000

 k-point    56 :      -0.1250   -0.2500    0.0000
  band No.  band energies     occupation 
      1     -17.2672      2.00000
      2     -17.1184      2.00000
      3      -7.6914      2.00000
      4      -7.1680      2.00000
      5      -6.6672      2.00000
      6      -6.5130      2.00000
      7      -6.3040      2.00000
      8      -5.7374      2.00000
      9      -5.2135      2.00000
     10      -4.9603      2.00000
     11      -4.0311      2.00000
     12      -3.6059      2.00000
     13      -2.9918      2.00000
     14      -2.6970      2.00000
     15      -2.4528      2.00000
     16      -2.3895      2.00000
     17      -2.1277      2.00000
     18      -0.3460      0.00000
     19       0.9489      0.00000
     20       3.4265      0.00000
     21       4.5756      0.00000
     22       5.0002      0.00000

 k-point    57 :       0.0000   -0.1250    0.0000
  band No.  band energies     occupation 
      1     -17.5480      2.00000
      2     -17.4188      2.00000
      3      -7.9707      2.00000
      4      -6.9978      2.00000
      5      -6.8683      2.00000
      6      -6.6365      2.00000
      7      -6.1458      2.00000
      8      -5.6939      2.00000
      9      -4.7916      2.00000
     10      -4.6824      2.00000
     11      -3.9878      2.00000
     12      -2.9754      2.00000
     13      -2.6125      2.00000
     14      -2.4239      2.00000
     15      -2.3831      2.00000
     16      -2.3240      2.00000
     17      -2.0523      2.00000
     18      -0.3007      0.00000
     19      -0.2058      0.00000
     20       2.8409      0.00000
     21       3.5690      0.00000
     22       4.1672      0.00000

 k-point    58 :       0.1250   -0.1250    0.0000
  band No.  band energies     occupation 
      1     -17.5483      2.00000
      2     -17.4191      2.00000
      3      -7.9715      2.00000
      4      -6.9995      2.00000
      5      -6.8653      2.00000
      6      -6.6367      2.00000
      7      -6.1510      2.00000
      8      -5.6866      2.00000
      9      -4.7969      2.00000
     10      -4.6750      2.00000
     11      -3.9908      2.00000
     12      -2.9770      2.00000
     13      -2.6092      2.00000
     14      -2.4249      2.00000
     15      -2.3800      2.00000
     16      -2.3254      2.00000
     17      -2.0567      2.00000
     18      -0.3000      0.00000
     19      -0.2054      0.00000
     20       2.8398      0.00000
     21       3.5682      0.00000
     22       4.1664      0.00000

 k-point    59 :       0.2500   -0.1250    0.0000
  band No.  band energies     occupation 
      1     -17.4269      2.00000
      2     -17.3062      2.00000
      3      -7.7679      2.00000
      4      -7.0391      2.00000
      5      -6.8943      2.00000
      6      -6.4167      2.00000
      7      -6.2914      2.00000
      8      -5.7057      2.00000
      9      -4.9998      2.00000
     10      -4.8888      2.00000
     11      -4.3208      2.00000
     12      -3.0709      2.00000
     13      -2.7858      2.00000
     14      -2.5219      2.00000
     15      -2.4107      2.00000
     16      -2.3314      2.00000
     17      -1.9882      2.00000
     18      -0.3043      0.00000
     19       0.1533      0.00000
     20       3.6739      0.00000
     21       4.0453      0.00000
     22       4.5333      0.00000

 k-point    60 :       0.3750   -0.1250    0.0000
  band No.  band energies     occupation 
      1     -17.2673      2.00000
      2     -17.1185      2.00000
      3      -7.6879      2.00000
      4      -7.1666      2.00000
      5      -6.6661      2.00000
      6      -6.5119      2.00000
      7      -6.3058      2.00000
      8      -5.7415      2.00000
      9      -5.2174      2.00000
     10      -4.9581      2.00000
     11      -4.0308      2.00000
     12      -3.6062      2.00000
     13      -2.9976      2.00000
     14      -2.6956      2.00000
     15      -2.4555      2.00000
     16      -2.3878      2.00000
     17      -2.1266      2.00000
     18      -0.3430      0.00000
     19       0.9464      0.00000
     20       3.4334      0.00000
     21       4.5719      0.00000
     22       4.9987      0.00000

 k-point    61 :       0.5000   -0.1250    0.0000
  band No.  band energies     occupation 
      1     -17.1576      2.00000
      2     -16.9701      2.00000
      3      -7.7191      2.00000
      4      -7.4122      2.00000
      5      -6.6416      2.00000
      6      -6.4386      2.00000
      7      -6.2339      2.00000
      8      -5.9127      2.00000
      9      -5.0915      2.00000
     10      -4.6809      2.00000
     11      -3.8324      2.00000
     12      -3.3845      2.00000
     13      -3.2456      2.00000
     14      -2.9947      2.00000
     15      -2.8840      2.00000
     16      -2.4696      2.00000
     17      -2.3116      2.00000
     18      -0.2456      0.00000
     19       1.2866      0.00000
     20       2.6876      0.00000
     21       4.8954      0.00000
     22       5.2557      0.00000

 k-point    62 :      -0.3750   -0.1250    0.0000
  band No.  band energies     occupation 
      1     -17.1573      2.00000
      2     -16.9696      2.00000
      3      -7.7206      2.00000
      4      -7.4135      2.00000
      5      -6.6404      2.00000
      6      -6.4396      2.00000
      7      -6.2347      2.00000
      8      -5.9119      2.00000
      9      -5.0913      2.00000
     10      -4.6803      2.00000
     11      -3.8338      2.00000
     12      -3.3828      2.00000
     13      -3.2412      2.00000
     14      -2.9908      2.00000
     15      -2.8853      2.00000
     16      -2.4726      2.00000
     17      -2.3117      2.00000
     18      -0.2463      0.00000
     19       1.2867      0.00000
     20       2.6874      0.00000
     21       4.8924      0.00000
     22       5.2534      0.00000

 k-point    63 :      -0.2500   -0.1250    0.0000
  band No.  band energies     occupation 
      1     -17.2665      2.00000
      2     -17.1175      2.00000
      3      -7.6894      2.00000
      4      -7.1668      2.00000
      5      -6.6683      2.00000
      6      -6.5142      2.00000
      7      -6.3055      2.00000
      8      -5.7412      2.00000
      9      -5.2154      2.00000
     10      -4.9574      2.00000
     11      -4.0314      2.00000
     12      -3.6047      2.00000
     13      -2.9937      2.00000
     14      -2.6941      2.00000
     15      -2.4533      2.00000
     16      -2.3885      2.00000
     17      -2.1274      2.00000
     18      -0.3447      0.00000
     19       0.9503      0.00000
     20       3.4300      0.00000
     21       4.5744      0.00000
     22       4.9997      0.00000

 k-point    64 :      -0.1250   -0.1250    0.0000
  band No.  band energies     occupation 
      1     -17.4261      2.00000
      2     -17.3053      2.00000
      3      -7.7666      2.00000
      4      -7.0387      2.00000
      5      -6.8949      2.00000
      6      -6.4181      2.00000
      7      -6.2924      2.00000
      8      -5.7091      2.00000
      9      -4.9965      2.00000
     10      -4.8935      2.00000
     11      -4.3172      2.00000
     12      -3.0723      2.00000
     13      -2.7843      2.00000
     14      -2.5219      2.00000
     15      -2.4097      2.00000
     16      -2.3302      2.00000
     17      -1.9878      2.00000
     18      -0.3045      0.00000
     19       0.1561      0.00000
     20       3.6749      0.00000
     21       4.0461      0.00000
     22       4.5347      0.00000


--------------------------------------------------------------------------------------------------------


 soft charge-density along one line, spin component           1
         0         1         2         3         4         5         6         7         8         9
 total charge-density along one line
 
 pseudopotential strength for first ion, spin component:           1
 49.272  51.711  -0.000   0.035   0.000  -0.000   0.044   0.000
 51.711  54.274  -0.000   0.037   0.000  -0.000   0.046   0.000
 -0.000  -0.000   9.299  -0.000  -0.000  11.526  -0.000  -0.000
  0.035   0.037  -0.000   9.297   0.000  -0.000  11.524   0.000
  0.000   0.000  -0.000   0.000   9.299  -0.000   0.000  11.526
 -0.000  -0.000  11.526  -0.000  -0.000  14.303  -0.000  -0.000
  0.044   0.046  -0.000  11.524   0.000  -0.000  14.301   0.000
  0.000   0.000  -0.000   0.000  11.526  -0.000   0.000  14.303
 total augmentation occupancy for first ion, spin component:           1
  8.727  -6.703   0.000  -2.983  -0.009  -0.000   1.280   0.003
 -6.703   6.632  -0.000   2.804   0.009   0.000  -1.270  -0.003
  0.000  -0.000   3.444  -0.000  -0.001  -0.989   0.000   0.001
 -2.983   2.804  -0.000   3.215   0.003   0.000  -0.851  -0.002
 -0.009   0.009  -0.001   0.003   3.444   0.001  -0.002  -0.989
 -0.000   0.000  -0.989   0.000   0.001   0.452  -0.000  -0.000
  1.280  -1.270   0.000  -0.851  -0.002  -0.000   0.417   0.000
  0.003  -0.003   0.001  -0.002  -0.989  -0.000   0.000   0.452


------------------------ aborting loop because EDIFF is reached ----------------------------------------


    CHARGE:  cpu time    0.3274: real time    0.3274
    FORLOC:  cpu time    0.0208: real time    0.0208
    FORNL :  cpu time    0.3848: real time    0.3848
    STRESS:  cpu time    2.7153: real time    2.7155
    FORCOR:  cpu time    0.3183: real time    0.3183
    FORHAR:  cpu time    0.0717: real time    0.0717
    MIXING:  cpu time    0.0100: real time    0.0100
    OFIELD:  cpu time    0.0001: real time    0.0001

 ---------------------------------------------------------------------------------------------

         DFTD3 V3.0 Rev 1        
 Edisp (eV)   -1.23696

 E6    (eV) :    -0.3572
 E8    (eV) :    -0.8798
 % E8        : 71.12
    FORVDW:  cpu time    0.0200: real time    0.0200

  FORCE on cell =-STRESS in cart. coord.  units (eV):
  Direction    XX          YY          ZZ          XY          YZ          ZX
  --------------------------------------------------------------------------------------
  Alpha Z    42.35773    42.35773    42.35773
  Ewald    7487.59059  7487.59087 -9005.93068    -0.26286    -0.02587     0.96051
  Hartree  7964.68661  7964.68756 -7781.67261    -0.04235    -0.00979     0.35723
  E(xc)    -141.07767  -141.07767  -141.54939    -0.00468    -0.00007     0.00253
  Local  -16079.50223-16079.50389 16152.91718     0.19634     0.03366    -1.24326
  n-local   142.50574   142.50571   144.19338     0.03128    -0.00005     0.00421
  augment    78.90302    78.90308    79.71589     0.01885     0.00016    -0.00661
  Kinetic   505.71868   505.71923   510.13106     0.12191     0.00180    -0.06964
  Fock        0.00000     0.00000     0.00000     0.00000     0.00000     0.00000
  vdW        -0.77797    -0.77795    -0.22433     0.00537     0.00007    -0.00220
  -------------------------------------------------------------------------------------
  Total       0.40449     0.40466    -0.06179     0.06385    -0.00009     0.00279
  in kB       2.82809     2.82926    -0.43199     0.44645    -0.00063     0.01948
  external pressure =        1.74 kB  Pullay stress =        0.00 kB


 VOLUME and BASIS-vectors are now :
 -----------------------------------------------------------------------------
  energy-cutoff  :      400.00
  volume of cell :      229.15
      direct lattice vectors                 reciprocal lattice vectors
     3.637250369 -0.036629028  0.000000000     0.276511559  0.156754677  0.000000000
    -1.796041249  3.168174471  0.000000000     0.003196904  0.317451511  0.000000000
     0.000000000  0.000000000 20.000000000     0.000000000  0.000000000  0.050000000

  length of vectors
     3.637434801  3.641853051 20.000000000     0.317853223  0.317467607  0.050000000


 FORCES acting on ions
    electron-ion (+dipol)            ewald-force                    non-local-force                 convergence-correction
 -----------------------------------------------------------------------------------------------
   0.263E+00 -.729E-02 0.992E+03   -.278E+00 0.771E-02 -.997E+03   0.128E-01 -.357E-03 0.512E+01   0.735E-03 -.317E-04 -.858E-04
   -.154E+00 0.386E-02 -.100E+04   0.157E+00 -.392E-02 0.100E+04   -.179E-02 0.224E-04 -.262E+01   -.284E-03 0.985E-05 -.108E-04
   -.986E-01 0.307E-02 -.568E+03   0.795E-01 -.256E-02 0.561E+03   0.192E-01 -.533E-03 0.653E+01   0.523E-03 -.461E-05 -.124E-03
   -.321E-01 0.102E-02 0.574E+03   0.410E-01 -.124E-02 -.567E+03   -.890E-02 0.228E-03 -.638E+01   -.499E-03 0.135E-04 -.870E-05
 -----------------------------------------------------------------------------------------------
   -.217E-01 0.653E-03 -.266E+01   0.603E-14 -.584E-14 0.000E+00   0.213E-01 -.640E-03 0.266E+01   0.474E-03 -.129E-04 -.230E-03
 
 
 POSITION                                       TOTAL-FORCE (eV/Angst)
 -----------------------------------------------------------------------------------
     -0.90096      1.58405      3.37628        -0.000555      0.000019      0.000238
     -0.89413      1.58386      7.70877         0.000465     -0.000016      0.000180
      0.91410      0.51567      6.20601         0.000227     -0.000015     -0.000221
      0.92692      2.61564      4.71361        -0.000137      0.000013     -0.000197
 -----------------------------------------------------------------------------------
    total drift:                                0.000045      0.000000     -0.000024


--------------------------------------------------------------------------------------------------------



  FREE ENERGIE OF THE ION-ELECTRON SYSTEM (eV)
  ---------------------------------------------------
  free  energy   TOTEN  =       -17.78414644 eV

  energy  without entropy=      -17.78414644  energy(sigma->0) =      -17.78414644
 
 d Force = 0.1028412E-06[ 0.809E-07, 0.125E-06]  d Energy = 0.1669241E-06-0.641E-07
 d Force = 0.4149161E-02[ 0.415E-02, 0.415E-02]  d Ewald  = 0.4149161E-02 0.437E-10


--------------------------------------------------------------------------------------------------------


    POTLOK:  cpu time    0.3244: real time    0.3244


--------------------------------------------------------------------------------------------------------


 Quasi-Newton relaxation of ions (Broydens 2nd method)
  g(Force)  = 0.373E-07   g(Stress)= 0.000E+00

 retain information from N=  2 steps
 eigenvalues of (default step * inverse Hessian matrix)
  average eigenvalue of G=   3.5507
 eigenvalue spectrum of G is  3.5507  3.5507


--------------------------------------------------------------------------------------------------------


  
 reached required accuracy - stopping structural energy minimisation
 writing wavefunctions
     LOOP+:  cpu time   22.9260: real time   22.9280
    4ORBIT:  cpu time    0.0000: real time    0.0000

 total amount of memory used by VASP MPI-rank0   229611. kBytes
=======================================================================

   base      :      30000. kBytes
   nonl-proj :     116390. kBytes
   fftplans  :      11208. kBytes
   grid      :      23989. kBytes
   one-center:         62. kBytes
   wavefun   :      47962. kBytes
 
  
  
 General timing and accounting informations for this job:
 ========================================================
  
                  Total CPU time used (sec):      380.399
                            User time (sec):      376.139
                          System time (sec):        4.260
                         Elapsed time (sec):      380.720
  
                   Maximum memory used (kb):      367272.
                   Average memory used (kb):           0.
  
                          Minor page faults:       295660
                          Major page faults:            0
                 Voluntary context switches:           61
