 running on    8 total cores
 distrk:  each k-point on    2 cores,    4 groups
 distr:  one band on    1 cores,    2 groups
 using from now: INCAR     
 vasp.5.4.4.16052018 (build Dec 07 2020 11:33:42) complex                       
  
 POSCAR found type information on POSCAR  Cl Br Pt
 POSCAR found :  3 types and       4 ions
 scaLAPACK will be used

 ----------------------------------------------------------------------------- 
|                                                                             |
|           W    W    AA    RRRRR   N    N  II  N    N   GGGG   !!!           |
|           W    W   A  A   R    R  NN   N  II  NN   N  G    G  !!!           |
|           W    W  A    A  R    R  N N  N  II  N N  N  G       !!!           |
|           W WW W  AAAAAA  RRRRR   N  N N  II  N  N N  G  GGG   !            |
|           WW  WW  A    A  R   R   N   NN  II  N   NN  G    G                |
|           W    W  A    A  R    R  N    N  II  N    N   GGGG   !!!           |
|                                                                             |
|      For optimal performance we recommend to set                            |
|        NCORE= 4 - approx SQRT( number of cores)                             |
|      NCORE specifies how many cores store one orbital (NPAR=cpu/NCORE).     |
|      This setting can  greatly improve the performance of VASP for DFT.     |
|      The default,   NCORE=1            might be grossly inefficient         |
|      on modern multi-core architectures or massively parallel machines.     |
|      Do your own testing !!!!                                               |
|      Unfortunately you need to use the default for GW and RPA calculations. |
|      (for HF NCORE is supported but not extensively tested yet)             |
|                                                                             |
 ----------------------------------------------------------------------------- 


 ----------------------------------------------------------------------------- 
|                                                                             |
|           W    W    AA    RRRRR   N    N  II  N    N   GGGG   !!!           |
|           W    W   A  A   R    R  NN   N  II  NN   N  G    G  !!!           |
|           W    W  A    A  R    R  N N  N  II  N N  N  G       !!!           |
|           W WW W  AAAAAA  RRRRR   N  N N  II  N  N N  G  GGG   !            |
|           WW  WW  A    A  R   R   N   NN  II  N   NN  G    G                |
|           W    W  A    A  R    R  N    N  II  N    N   GGGG   !!!           |
|                                                                             |
|      You have enabled k-point parallelism (KPAR>1).                         |
|      This developmental code was originally  written by Paul Kent at ORNL,  |
|      and carefully double checked in Vienna.                                |
|      GW as well as linear response parallelism added by Martijn Marsman     |
|      and Georg Kresse.                                                      |
|      Carefully verify results versus KPAR=1.                                |
|      Report problems to Paul Kent and Vienna.                               |
|                                                                             |
 ----------------------------------------------------------------------------- 

 LDA part: xc-table for Pade appr. of Perdew
 POSCAR, INCAR and KPOINTS ok, starting setup
 FFT: planning ...
 WAVECAR not read
 entering main loop
       N       E                     dE             d eps       ncg     rms          rms(c)
DAV:   1     0.223218992874E+03    0.22322E+03   -0.10066E+04   704   0.796E+02
DAV:   2     0.259170948408E+01   -0.22063E+03   -0.20966E+03  1056   0.206E+02
DAV:   3    -0.170069257205E+02   -0.19599E+02   -0.19282E+02   854   0.698E+01
DAV:   4    -0.174349344033E+02   -0.42801E+00   -0.42712E+00   848   0.117E+01
DAV:   5    -0.174454594823E+02   -0.10525E-01   -0.10523E-01   872   0.176E+00    0.162E+01
DAV:   6    -0.165989892046E+02    0.84647E+00   -0.22660E+00   866   0.133E+01    0.910E+00
DAV:   7    -0.166052115982E+02   -0.62224E-02   -0.57377E-01   812   0.772E+00    0.313E+00
DAV:   8    -0.166564572143E+02   -0.51246E-01   -0.43682E-01   830   0.951E+00    0.251E+00
DAV:   9    -0.165487478876E+02    0.10771E+00   -0.15434E-01   812   0.555E+00    0.419E-01
DAV:  10    -0.165480004235E+02    0.74746E-03   -0.25404E-02   758   0.997E-01    0.135E-01
DAV:  11    -0.165479507752E+02    0.49648E-04   -0.19380E-03   800   0.368E-01    0.824E-02
DAV:  12    -0.165479780510E+02   -0.27276E-04   -0.16905E-04   850   0.919E-02
   1 F= -.17792041E+02 E0= -.17792041E+02  d E =-.177920E+02
stress tensor set to zero in row and column 2
stress tensor set to zero in row and column 3
 BRION: g(F)=  0.136E-02 g(S)=  0.824E-03
 bond charge predicted
       N       E                     dE             d eps       ncg     rms          rms(c)
DAV:   1    -0.165548326232E+02   -0.68818E-02   -0.29689E-01   704   0.328E+00    0.400E-01
DAV:   2    -0.165527577727E+02    0.20749E-02   -0.12680E-02   854   0.826E-01    0.179E-01
DAV:   3    -0.165523421130E+02    0.41566E-03   -0.77726E-04   848   0.250E-01    0.109E-01
DAV:   4    -0.165523427729E+02   -0.65983E-06   -0.72725E-04   842   0.338E-01    0.996E-02
DAV:   5    -0.165522422917E+02    0.10048E-03   -0.26284E-04   830   0.201E-01    0.378E-02
DAV:   6    -0.165522518913E+02   -0.95996E-05   -0.34106E-05   604   0.390E-02
   2 F= -.17793359E+02 E0= -.17793359E+02  d E =-.131814E-02
stress tensor set to zero in row and column 2
stress tensor set to zero in row and column 3
 BRION: g(F)=  0.629E-03 g(S)=  0.175E-03 retain N=  1 mean eig= 0.68
 eig:   0.683
 bond charge predicted
       N       E                     dE             d eps       ncg     rms          rms(c)
DAV:   1    -0.165521869321E+02    0.55360E-04   -0.44494E-02   704   0.124E+00    0.132E-01
DAV:   2    -0.165520216395E+02    0.16529E-03   -0.20977E-03   854   0.324E-01    0.531E-02
DAV:   3    -0.165519949763E+02    0.26663E-04   -0.13259E-04   596   0.148E-01
   3 F= -.17793841E+02 E0= -.17793841E+02  d E =-.482440E-03
stress tensor set to zero in row and column 2
stress tensor set to zero in row and column 3
 BRION: g(F)=  0.363E-03 g(S)=  0.271E-03 retain N=  1 mean eig= 2.47
 eig:   2.475
 bond charge predicted
       N       E                     dE             d eps       ncg     rms          rms(c)
DAV:   1    -0.165517749532E+02    0.24669E-03   -0.14765E-02   746   0.762E-01    0.985E-02
DAV:   2    -0.165516083789E+02    0.16657E-03   -0.88533E-04   884   0.230E-01    0.498E-02
DAV:   3    -0.165515827810E+02    0.25598E-04   -0.92297E-05   592   0.124E-01
   4 F= -.17793964E+02 E0= -.17793964E+02  d E =-.122386E-03
stress tensor set to zero in row and column 2
stress tensor set to zero in row and column 3
 BRION: g(F)=  0.303E-03 g(S)=  0.742E-05 retain N=  2 mean eig= 4.96
 eig:   4.963  4.963
 reached required accuracy - stopping structural energy minimisation
 writing wavefunctions
