 vasp.5.4.4.16052018 (build Dec 07 2020 11:33:42) complex                       
  
 executed on             LinuxIFC date 2020.12.13  00:47:05
 running on    8 total cores
 distrk:  each k-point on    2 cores,    4 groups
 distr:  one band on NCORES_PER_BAND=   1 cores,    2 groups


--------------------------------------------------------------------------------------------------------


 INCAR:
 POTCAR:    PAW_PBE Cl 06Sep2000                  
 POTCAR:    PAW_PBE Br 06Sep2000                  
 POTCAR:    PAW_PBE Pt 04Feb2005                  

 ----------------------------------------------------------------------------- 
|                                                                             |
|           W    W    AA    RRRRR   N    N  II  N    N   GGGG   !!!           |
|           W    W   A  A   R    R  NN   N  II  NN   N  G    G  !!!           |
|           W    W  A    A  R    R  N N  N  II  N N  N  G       !!!           |
|           W WW W  AAAAAA  RRRRR   N  N N  II  N  N N  G  GGG   !            |
|           WW  WW  A    A  R   R   N   NN  II  N   NN  G    G                |
|           W    W  A    A  R    R  N    N  II  N    N   GGGG   !!!           |
|                                                                             |
|      For optimal performance we recommend to set                            |
|        NCORE= 4 - approx SQRT( number of cores)                             |
|      NCORE specifies how many cores store one orbital (NPAR=cpu/NCORE).     |
|      This setting can  greatly improve the performance of VASP for DFT.     |
|      The default,   NCORE=1            might be grossly inefficient         |
|      on modern multi-core architectures or massively parallel machines.     |
|      Do your own testing !!!!                                               |
|      Unfortunately you need to use the default for GW and RPA calculations. |
|      (for HF NCORE is supported but not extensively tested yet)             |
|                                                                             |
 ----------------------------------------------------------------------------- 


 ----------------------------------------------------------------------------- 
|                                                                             |
|           W    W    AA    RRRRR   N    N  II  N    N   GGGG   !!!           |
|           W    W   A  A   R    R  NN   N  II  NN   N  G    G  !!!           |
|           W    W  A    A  R    R  N N  N  II  N N  N  G       !!!           |
|           W WW W  AAAAAA  RRRRR   N  N N  II  N  N N  G  GGG   !            |
|           WW  WW  A    A  R   R   N   NN  II  N   NN  G    G                |
|           W    W  A    A  R    R  N    N  II  N    N   GGGG   !!!           |
|                                                                             |
|      You have enabled k-point parallelism (KPAR>1).                         |
|      This developmental code was originally  written by Paul Kent at ORNL,  |
|      and carefully double checked in Vienna.                                |
|      GW as well as linear response parallelism added by Martijn Marsman     |
|      and Georg Kresse.                                                      |
|      Carefully verify results versus KPAR=1.                                |
|      Report problems to Paul Kent and Vienna.                               |
|                                                                             |
 ----------------------------------------------------------------------------- 

 POTCAR:    PAW_PBE Cl 06Sep2000                  
   VRHFIN =Cl: s2p5                                                             
   LEXCH  = PE                                                                  
   EATOM  =   409.7259 eV,   30.1140 Ry                                         
                                                                                
   TITEL  = PAW_PBE Cl 06Sep2000                                                
   LULTRA =        F    use ultrasoft PP ?                                      
   IUNSCR =        1    unscreen: 0-lin 1-nonlin 2-no                           
   RPACOR =    1.500    partial core radius                                     
   POMASS =   35.453; ZVAL   =    7.000    mass and valenz                      
   RCORE  =    1.900    outmost cutoff radius                                   
   RWIGS  =    2.100; RWIGS  =    1.111    wigner-seitz radius (au A)           
   ENMAX  =  262.472; ENMIN  =  196.854 eV                                      
   ICORE  =        2    local potential                                         
   LCOR   =        T    correct aug charges                                     
   LPAW   =        T    paw PP                                                  
   EAUG   =  356.192                                                            
   DEXC   =    0.000                                                            
   RMAX   =    1.945    core radius for proj-oper                               
   RAUG   =    1.300    factor for augmentation sphere                          
   RDEP   =    2.020    radius for radial grids                                 
   RDEPT  =    1.678    core radius for aug-charge                              
                                                                                
   Atomic configuration                                                         
    6 entries                                                                   
     n  l   j            E        occ.                                          
     1  0  0.50     -2751.1850   2.0000                                         
     2  0  0.50      -252.6861   2.0000                                         
     2  1  1.50      -191.6157   6.0000                                         
     3  0  0.50       -20.6916   2.0000                                         
     3  1  0.50        -8.5949   5.0000                                         
     3  2  1.50        -8.1635   0.0000                                         
   Description                                                                  
     l       E           TYP  RCUT    TYP  RCUT                                 
     0    -20.6915656     23  1.900                                             
     0    -22.0521482     23  1.900                                             
     1     -8.5948577     23  1.900                                             
     1     -5.3847331     23  1.900                                             
     2     -8.1634956     23  1.900                                             
  local pseudopotential read in
  partial core-charges read in
  partial kinetic energy density read in
  atomic valenz-charges read in
  non local Contribution for L=           0  read in
    real space projection operators read in
  non local Contribution for L=           0  read in
    real space projection operators read in
  non local Contribution for L=           1  read in
    real space projection operators read in
  non local Contribution for L=           1  read in
    real space projection operators read in
    PAW grid and wavefunctions read in
 
   number of l-projection  operators is LMAX  =           4
   number of lm-projection operators is LMMAX =           8
 
 POTCAR:    PAW_PBE Br 06Sep2000                  
   VRHFIN =Br: s2p5                                                             
   LEXCH  = PE                                                                  
   EATOM  =   368.4488 eV,   27.0802 Ry                                         
                                                                                
   TITEL  = PAW_PBE Br 06Sep2000                                                
   LULTRA =        F    use ultrasoft PP ?                                      
   IUNSCR =        1    unscreen: 0-lin 1-nonlin 2-no                           
   RPACOR =    1.900    partial core radius                                     
   POMASS =   79.904; ZVAL   =    7.000    mass and valenz                      
   RCORE  =    2.100    outmost cutoff radius                                   
   RWIGS  =    2.200; RWIGS  =    1.164    wigner-seitz radius (au A)           
   ENMAX  =  216.285; ENMIN  =  162.214 eV                                      
   ICORE  =        3    local potential                                         
   LCOR   =        T    correct aug charges                                     
   LPAW   =        T    paw PP                                                  
   EAUG   =  503.852                                                            
   DEXC   =    0.000                                                            
   RMAX   =    2.139    core radius for proj-oper                               
   RAUG   =    1.300    factor for augmentation sphere                          
   RDEP   =    2.186    radius for radial grids                                 
   RDEPT  =    1.890    core radius for aug-charge                              
                                                                                
   Atomic configuration                                                         
   10 entries                                                                   
     n  l   j            E        occ.                                          
     1  0  0.50    -13316.2796   2.0000                                         
     2  0  0.50     -1732.8239   2.0000                                         
     2  1  1.50     -1528.2193   6.0000                                         
     3  0  0.50      -238.0460   2.0000                                         
     3  1  1.50      -173.4609   6.0000                                         
     3  2  2.50       -66.7132  10.0000                                         
     4  0  0.50       -20.1334   2.0000                                         
     4  1  0.50        -7.8591   5.0000                                         
     4  2  2.50        -8.1635   0.0000                                         
     4  3  2.50        -8.1635   0.0000                                         
   Description                                                                  
     l       E           TYP  RCUT    TYP  RCUT                                 
     0    -20.1333652     23  2.100                                             
     0    -21.4939478     23  2.100                                             
     1     -7.8591052     23  2.100                                             
     1     -3.1608434     23  2.100                                             
     2     -8.1634956     23  2.100                                             
     3     -1.3605826      7  2.100                                             
  local pseudopotential read in
  partial core-charges read in
  partial kinetic energy density read in
  atomic valenz-charges read in
  non local Contribution for L=           0  read in
    real space projection operators read in
  non local Contribution for L=           0  read in
    real space projection operators read in
  non local Contribution for L=           1  read in
    real space projection operators read in
  non local Contribution for L=           1  read in
    real space projection operators read in
  non local Contribution for L=           2  read in
    real space projection operators read in
    PAW grid and wavefunctions read in
 
   number of l-projection  operators is LMAX  =           5
   number of lm-projection operators is LMMAX =          13
 
 POTCAR:    PAW_PBE Pt 04Feb2005                  
   VRHFIN =Pt: s1d9                                                             
   LEXCH  = PE                                                                  
   EATOM  =   729.1176 eV,   53.5886 Ry                                         
                                                                                
   TITEL  = PAW_PBE Pt 04Feb2005                                                
   LULTRA =        F    use ultrasoft PP ?                                      
   IUNSCR =        1    unscreen: 0-lin 1-nonlin 2-no                           
   RPACOR =    2.330    partial core radius                                     
   POMASS =  195.080; ZVAL   =   10.000    mass and valenz                      
   RCORE  =    2.600    outmost cutoff radius                                   
   RWIGS  =    2.750; RWIGS  =    1.455    wigner-seitz radius (au A)           
   ENMAX  =  230.283; ENMIN  =  172.712 eV                                      
   ICORE  =        3    local potential                                         
   LCOR   =        T    correct aug charges                                     
   LPAW   =        T    paw PP                                                  
   EAUG   =  358.966                                                            
   DEXC   =    0.000                                                            
   RMAX   =    2.658    core radius for proj-oper                               
   RAUG   =    1.300    factor for augmentation sphere                          
   RDEP   =    2.761    radius for radial grids                                 
   RDEPT  =    2.203    core radius for aug-charge                              
                                                                                
   Atomic configuration                                                         
   16 entries                                                                   
     n  l   j            E        occ.                                          
     1  0  0.50    -78401.1885   2.0000                                         
     2  0  0.50    -13770.7750   2.0000                                         
     2  1  1.50    -11931.0468   6.0000                                         
     3  0  0.50     -3234.7234   2.0000                                         
     3  1  1.50     -2699.2216   6.0000                                         
     3  2  2.50     -2119.5714  10.0000                                         
     4  0  0.50      -695.1528   2.0000                                         
     4  1  1.50      -519.6034   6.0000                                         
     4  2  2.50      -306.6786  10.0000                                         
     4  3  3.50       -70.1041  14.0000                                         
     5  0  0.50      -101.7747   2.0000                                         
     5  1  1.50       -55.9873   6.0000                                         
     5  2  2.50        -6.1423   9.0000                                         
     6  0  0.50        -5.6573   1.0000                                         
     6  1  1.50        -6.8029   0.0000                                         
     5  3  2.50        -1.3606   0.0000                                         
   Description                                                                  
     l       E           TYP  RCUT    TYP  RCUT                                 
     2     -6.1423404     23  2.500                                             
     2     -7.5029230     23  2.500                                             
     0     -5.6573207     23  2.500                                             
     0      0.7416693     23  2.500                                             
     1     -2.7211652     23  2.600                                             
     1     20.4087390     23  2.600                                             
     3     -1.3605826     23  2.500                                             
  local pseudopotential read in
  partial core-charges read in
  partial kinetic energy density read in
  atomic valenz-charges read in
  non local Contribution for L=           2  read in
    real space projection operators read in
  non local Contribution for L=           2  read in
    real space projection operators read in
  non local Contribution for L=           0  read in
    real space projection operators read in
  non local Contribution for L=           0  read in
    real space projection operators read in
  non local Contribution for L=           1  read in
    real space projection operators read in
  non local Contribution for L=           1  read in
    real space projection operators read in
    PAW grid and wavefunctions read in
 
   number of l-projection  operators is LMAX  =           6
   number of lm-projection operators is LMMAX =          18
 
  PAW_PBE Cl 06Sep2000                  :
 energy of atom  1       EATOM= -409.7259
 kinetic energy error for atom=    0.0150 (will be added to EATOM!!)
  PAW_PBE Br 06Sep2000                  :
 energy of atom  2       EATOM= -368.4488
 kinetic energy error for atom=    0.0072 (will be added to EATOM!!)
  PAW_PBE Pt 04Feb2005                  :
 energy of atom  3       EATOM= -729.1176
 kinetic energy error for atom=    0.0416 (will be added to EATOM!!)
 
 
 POSCAR: ClBrPt2                                 
  positions in direct lattice
  velocities in cartesian coordinates
 exchange correlation table for  LEXCH =        8
   RHO(1)=    0.500       N(1)  =     2000
   RHO(2)=  100.500       N(2)  =     4000
 


--------------------------------------------------------------------------------------------------------


 ion  position               nearest neighbor table
   1  0.000  0.500  0.168-   4 2.48   4 2.49   4 2.49
   2  0.000  0.500  0.386-   3 2.57   3 2.58   3 2.58
   3  0.333  0.167  0.310-   4 2.56   2 2.57   4 2.57   4 2.57   2 2.58   2 2.58
   4  0.667  0.833  0.236-   1 2.48   1 2.49   1 2.49   3 2.56   3 2.57   3 2.57
 

IMPORTANT INFORMATION: All symmetrisations will be switched off!
NOSYMM: (Re-)initialisation of all symmetry stuff for point group C_1.

 
 
 KPOINTS: Automatic mesh                          

Automatic generation of k-mesh.
Space group operators:
 irot       det(A)        alpha          n_x          n_y          n_z        tau_x        tau_y        tau_z
    1     1.000000     0.000001     1.000000     0.000000     0.000000     0.000000     0.000000     0.000000
 
 Subroutine IBZKPT returns following result:
 ===========================================
 
 Found     16 irreducible k-points:
 
 Following reciprocal coordinates:
            Coordinates               Weight
  0.000000  0.000000  0.000000      1.000000
  0.250000 -0.000000  0.000000      1.000000
  0.500000 -0.000000  0.000000      1.000000
 -0.250000  0.000000  0.000000      1.000000
 -0.000000  0.250000  0.000000      1.000000
  0.250000  0.250000  0.000000      1.000000
  0.500000  0.250000  0.000000      1.000000
 -0.250000  0.250000  0.000000      1.000000
 -0.000000  0.500000  0.000000      1.000000
  0.250000  0.500000  0.000000      1.000000
  0.500000  0.500000  0.000000      1.000000
 -0.250000  0.500000  0.000000      1.000000
  0.000000 -0.250000  0.000000      1.000000
  0.250000 -0.250000  0.000000      1.000000
  0.500000 -0.250000  0.000000      1.000000
 -0.250000 -0.250000  0.000000      1.000000
 
 Following cartesian coordinates:
            Coordinates               Weight
  0.000000  0.000000  0.000000      1.000000
  0.069134  0.039390  0.000000      1.000000
  0.138267  0.078780  0.000000      1.000000
 -0.069134 -0.039390  0.000000      1.000000
  0.000803  0.080171  0.000000      1.000000
  0.069937  0.119561  0.000000      1.000000
  0.139071  0.158951  0.000000      1.000000
 -0.068330  0.040781  0.000000      1.000000
  0.001607  0.160343  0.000000      1.000000
  0.070740  0.199733  0.000000      1.000000
  0.139874  0.239123  0.000000      1.000000
 -0.067527  0.120953  0.000000      1.000000
 -0.000803 -0.080171  0.000000      1.000000
  0.068330 -0.040781  0.000000      1.000000
  0.137464 -0.001391  0.000000      1.000000
 -0.069937 -0.119561  0.000000      1.000000
 


--------------------------------------------------------------------------------------------------------




 Dimension of arrays:
   k-points           NKPTS =     16   k-points in BZ     NKDIM =     16   number of bands    NBANDS=     22
   number of dos      NEDOS =    301   number of ions     NIONS =      4
   non local maximal  LDIM  =      6   non local SUM 2l+1 LMDIM =     18
   total plane-waves  NPLWV =  57600
   max r-space proj   IRMAX =      1   max aug-charges    IRDMAX=  15578
   dimension x,y,z NGX =    24 NGY =   20 NGZ =  120
   dimension x,y,z NGXF=    48 NGYF=   40 NGZF=  240
   support grid    NGXF=    48 NGYF=   40 NGZF=  240
   ions per type =               1   1   2
   NGX,Y,Z   is equivalent  to a cutoff of  10.97,  9.21,  9.97 a.u.
   NGXF,Y,Z  is equivalent  to a cutoff of  21.94, 18.42, 19.95 a.u.

 SYSTEM =  unknown system                          
 POSCAR =  ClBrPt2                                 

 Startparameter for this run:
   NWRITE =      2    write-flag & timer
   PREC   = accura    normal or accurate (medium, high low for compatibility)
   ISTART =      0    job   : 0-new  1-cont  2-samecut
   ICHARG =      2    charge: 1-file 2-atom 10-const
   ISPIN  =      1    spin polarized calculation?
   LNONCOLLINEAR =      F non collinear calculations
   LSORBIT =      F    spin-orbit coupling
   INIWAV =      1    electr: 0-lowe 1-rand  2-diag
   LASPH  =      F    aspherical Exc in radial PAW
   METAGGA=      F    non-selfconsistent MetaGGA calc.

 Electronic Relaxation 1
   ENCUT  =  300.0 eV  22.05 Ry    4.70 a.u.   5.14  5.10 28.25*2*pi/ulx,y,z
   ENINI  =  300.0     initial cutoff
   ENAUG  =  503.9 eV  augmentation charge cutoff
   NELM   =     60;   NELMIN=  2; NELMDL= -5     # of ELM steps 
   EDIFF  = 0.5E-04   stopping-criterion for ELM
   LREAL  =      F    real-space projection
   NLSPLINE    = F    spline interpolate recip. space projectors
   LCOMPAT=      F    compatible to vasp.4.4
   GGA_COMPAT  = T    GGA compatible to vasp.4.4-vasp.4.6
   LMAXPAW     = -100 max onsite density
   LMAXMIX     =    2 max onsite mixed and CHGCAR
   VOSKOWN=      0    Vosko Wilk Nusair interpolation
   ROPT   =    0.00000   0.00000   0.00000
 Ionic relaxation
   EDIFFG = 0.5E-03   stopping-criterion for IOM
   NSW    =    100    number of steps for IOM
   NBLOCK =      1;   KBLOCK =    100    inner block; outer block 
   IBRION =      1    ionic relax: 0-MD 1-quasi-New 2-CG
   NFREE  =      0    steps in history (QN), initial steepest desc. (CG)
   ISIF   =      3    stress and relaxation
   IWAVPR =     11    prediction:  0-non 1-charg 2-wave 3-comb
   ISYM   =     -1    0-nonsym 1-usesym 2-fastsym
   LCORR  =      T    Harris-Foulkes like correction to forces

   POTIM  = 0.5000    time-step for ionic-motion
   TEIN   =    0.0    initial temperature
   TEBEG  =    0.0;   TEEND  =   0.0 temperature during run
   SMASS  =  -3.00    Nose mass-parameter (am)
   estimated Nose-frequenzy (Omega)   =  0.10E-29 period in steps =****** mass=  -0.302E-27a.u.
   SCALEE = 1.0000    scale energy and forces
   NPACO  =    256;   APACO  = 16.0  distance and # of slots for P.C.
   PSTRESS=    0.0 pullay stress

  Mass of Ions in am
   POMASS =  35.45 79.90195.08
  Ionic Valenz
   ZVAL   =   7.00  7.00 10.00
  Atomic Wigner-Seitz radii
   RWIGS  =  -1.00 -1.00 -1.00
  virtual crystal weights 
   VCA    =   1.00  1.00  1.00
   NELECT =      34.0000    total number of electrons
   NUPDOWN=      -1.0000    fix difference up-down

 DOS related values:
   EMIN   =  10.00;   EMAX   =-10.00  energy-range for DOS
   EFERMI =   0.00
   ISMEAR =     0;   SIGMA  =   0.10  broadening in eV -4-tet -1-fermi 0-gaus

 Electronic relaxation 2 (details)
   IALGO  =     38    algorithm
   LDIAG  =      T    sub-space diagonalisation (order eigenvalues)
   LSUBROT=      F    optimize rotation matrix (better conditioning)
   TURBO    =      0    0=normal 1=particle mesh
   IRESTART =      0    0=no restart 2=restart with 2 vectors
   NREBOOT  =      0    no. of reboots
   NMIN     =      0    reboot dimension
   EREF     =   0.00    reference energy to select bands
   IMIX   =      4    mixing-type and parameters
     AMIX     =   0.40;   BMIX     =  1.00
     AMIX_MAG =   1.60;   BMIX_MAG =  1.00
     AMIN     =   0.10
     WC   =   100.;   INIMIX=   1;  MIXPRE=   1;  MAXMIX= -45

 Intra band minimization:
   WEIMIN = 0.0010     energy-eigenvalue tresh-hold
   EBREAK =  0.57E-06  absolut break condition
   DEPER  =   0.30     relativ break condition  

   TIME   =   0.40     timestep for ELM

  volume/ion in A,a.u.               =      56.71       382.67
  Fermi-wavevector in a.u.,A,eV,Ry     =   0.869638  1.643378 10.289688  0.756271
  Thomas-Fermi vector in A             =   1.988489
 
 Write flags
   LWAVE        =      T    write WAVECAR
   LDOWNSAMPLE  =      F    k-point downsampling of WAVECAR
   LCHARG       =      T    write CHGCAR
   LVTOT        =      F    write LOCPOT, total local potential
   LVHAR        =      F    write LOCPOT, Hartree potential only
   LELF         =      F    write electronic localiz. function (ELF)
   LORBIT       =      0    0 simple, 1 ext, 2 COOP (PROOUT), +10 PAW based schemes


 Dipole corrections
   LMONO  =      F    monopole corrections only (constant potential shift)
   LDIPOL =      T    correct potential (dipole corrections)
   IDIPOL =      3    1-x, 2-y, 3-z, 4-all directions 
   EPSILON=  1.0000000 bulk dielectric constant

 Exchange correlation treatment:
   GGA     =    --    GGA type
   LEXCH   =     8    internal setting for exchange type
   VOSKOWN=      0    Vosko Wilk Nusair interpolation
   LHFCALC =     F    Hartree Fock is set to
   LHFONE  =     F    Hartree Fock one center treatment
   AEXX    =    0.0000 exact exchange contribution

 Linear response parameters
   LEPSILON=     F    determine dielectric tensor
   LRPA    =     F    only Hartree local field effects (RPA)
   LNABLA  =     F    use nabla operator in PAW spheres
   LVEL    =     F    velocity operator in full k-point grid
   LINTERFAST=   F  fast interpolation
   KINTER  =     0    interpolate to denser k-point grid
   CSHIFT  =0.1000    complex shift for real part using Kramers Kronig
   OMEGAMAX=  -1.0    maximum frequency
   DEG_THRESHOLD= 0.2000000E-02 threshold for treating states as degnerate
   RTIME   =   -0.100 relaxation time in fs
  (WPLASMAI=    0.000 imaginary part of plasma frequency in eV, 0.658/RTIME)
   DFIELD  = 0.0000000 0.0000000 0.0000000 field for delta impulse in time
 
 Orbital magnetization related:
   ORBITALMAG=     F  switch on orbital magnetization
   LCHIMAG   =     F  perturbation theory with respect to B field
   DQ        =  0.001000  dq finite difference perturbation B field
   LLRAUG    =     F  two centre corrections for induced B field



--------------------------------------------------------------------------------------------------------


 quasi-Newton-method for relaxation of ions
 charge density and potential will be updated during run
 non-spin polarized calculation
 Variant of blocked Davidson
 Davidson routine will perform the subspace rotation
 perform sub-space diagonalisation
    after iterative eigenvector-optimisation
 modified Broyden-mixing scheme, WC =      100.0
 initial mixing is a Kerker type mixing with AMIX =  0.4000 and BMIX =      1.0000
 Hartree-type preconditioning will be used
 using additional bands            5
 reciprocal scheme for non local part
 use partial core corrections
 calculate Harris-corrections to forces 
   (improved forces if not selfconsistent)
 use gradient corrections 
 use of overlap-Matrix (Vanderbilt PP)
 Gauss-broadening in eV      SIGMA  =   0.10


--------------------------------------------------------------------------------------------------------


  energy-cutoff  :      300.00
  volume of cell :      226.82
      direct lattice vectors                 reciprocal lattice vectors
     3.636944978 -0.036443352  0.000000000     0.276534843  0.157559855  0.000000000
    -1.786911496  3.136225858  0.000000000     0.003213371  0.320685453  0.000000000
     0.000000000  0.000000000 20.000000000     0.000000000  0.000000000  0.050000000

  length of vectors
     3.637127560  3.609565808 20.000000000     0.318271311  0.320701552  0.050000000


 
 k-points in units of 2pi/SCALE and weight: Automatic mesh                          
   0.00000000  0.00000000  0.00000000       0.062
   0.06913371  0.03938996  0.00000000       0.062
   0.13826742  0.07877993  0.00000000       0.062
  -0.06913371 -0.03938996  0.00000000       0.062
   0.00080334  0.08017136  0.00000000       0.062
   0.06993705  0.11956133  0.00000000       0.062
   0.13907076  0.15895129  0.00000000       0.062
  -0.06833037  0.04078140  0.00000000       0.062
   0.00160669  0.16034273  0.00000000       0.062
   0.07074040  0.19973269  0.00000000       0.062
   0.13987411  0.23912265  0.00000000       0.062
  -0.06752703  0.12095276  0.00000000       0.062
  -0.00080334 -0.08017136  0.00000000       0.062
   0.06833037 -0.04078140  0.00000000       0.062
   0.13746408 -0.00139144  0.00000000       0.062
  -0.06993705 -0.11956133  0.00000000       0.062
 
 k-points in reciprocal lattice and weights: Automatic mesh                          
   0.00000000  0.00000000  0.00000000       0.062
   0.25000000 -0.00000000  0.00000000       0.062
   0.50000000 -0.00000000  0.00000000       0.062
  -0.25000000  0.00000000  0.00000000       0.062
  -0.00000000  0.25000000  0.00000000       0.062
   0.25000000  0.25000000  0.00000000       0.062
   0.50000000  0.25000000  0.00000000       0.062
  -0.25000000  0.25000000  0.00000000       0.062
  -0.00000000  0.50000000  0.00000000       0.062
   0.25000000  0.50000000  0.00000000       0.062
   0.50000000  0.50000000  0.00000000       0.062
  -0.25000000  0.50000000  0.00000000       0.062
   0.00000000 -0.25000000  0.00000000       0.062
   0.25000000 -0.25000000  0.00000000       0.062
   0.50000000 -0.25000000  0.00000000       0.062
  -0.25000000 -0.25000000  0.00000000       0.062
 
 position of ions in fractional coordinates (direct lattice) 
   0.00003284  0.49996180  0.16834626
   0.00003221  0.49995994  0.38572384
   0.33336542  0.16662742  0.31048675
   0.66669892  0.83329448  0.23567645
 
 position of ions in cartesian coordinates  (Angst):
  -0.89326804  1.56799192  3.36692514
  -0.89326702  1.56798612  7.71447671
   0.91468324  0.51043227  6.20973506
   0.93572381  2.58910296  4.71352901
 


--------------------------------------------------------------------------------------------------------


 k-point  1 :   0.0000 0.0000 0.0000  plane waves:    2657
 k-point  2 :   0.2500-0.0000 0.0000  plane waves:    2668
 k-point  3 :   0.5000-0.0000 0.0000  plane waves:    2674
 k-point  4 :  -0.2500 0.0000 0.0000  plane waves:    2668
 k-point  5 :  -0.0000 0.2500 0.0000  plane waves:    2667
 k-point  6 :   0.2500 0.2500 0.0000  plane waves:    2687
 k-point  7 :   0.5000 0.2500 0.0000  plane waves:    2699
 k-point  8 :  -0.2500 0.2500 0.0000  plane waves:    2668
 k-point  9 :  -0.0000 0.5000 0.0000  plane waves:    2686
 k-point 10 :   0.2500 0.5000 0.0000  plane waves:    2687
 k-point 11 :   0.5000 0.5000 0.0000  plane waves:    2674
 k-point 12 :  -0.2500 0.5000 0.0000  plane waves:    2687
 k-point 13 :   0.0000-0.2500 0.0000  plane waves:    2667
 k-point 14 :   0.2500-0.2500 0.0000  plane waves:    2668
 k-point 15 :   0.5000-0.2500 0.0000  plane waves:    2699
 k-point 16 :  -0.2500-0.2500 0.0000  plane waves:    2687

 maximum and minimum number of plane-waves per node :      2699     2657

 maximum number of plane-waves:      2699
 maximum index in each direction: 
   IXMAX=    5   IYMAX=    5   IZMAX=   28
   IXMIN=   -5   IYMIN=   -5   IZMIN=  -28


 serial   3D FFT for wavefunctions
 parallel 3D FFT for charge:
    minimum data exchange during FFTs selected (reduces bandwidth)


 total amount of memory used by VASP MPI-rank0    81829. kBytes
=======================================================================

   base      :      30000. kBytes
   nonl-proj :      18835. kBytes
   fftplans  :       8017. kBytes
   grid      :      17149. kBytes
   one-center:         62. kBytes
   wavefun   :       7766. kBytes
 
     INWAV:  cpu time    0.0000: real time    0.0000
 Broyden mixing: mesh for mixing (old mesh)
   NGX = 11   NGY = 11   NGZ = 57
  (NGX  = 48   NGY  = 40   NGZ  =240)
  gives a total of   6897 points

 initial charge density was supplied:
 charge density of overlapping atoms calculated
 number of electron      34.0000000 magnetization 
 keeping initial charge density in first step


--------------------------------------------------------------------------------------------------------


 Maximum index for augmentation-charges         7461 (set IRDMAX)


--------------------------------------------------------------------------------------------------------


 First call to EWALD:  gamma=   0.291
 Maximum number of real-space cells 5x 5x 1
 Maximum number of reciprocal cells 2x 2x 8

    FEWALD:  cpu time    0.0010: real time    0.0010


--------------------------------------- Iteration      1(   1)  ---------------------------------------


    POTLOK:  cpu time    0.1982: real time    0.1983
    SETDIJ:  cpu time    0.0053: real time    0.0053
     EDDAV:  cpu time    0.6118: real time    0.6118
       DOS:  cpu time    0.0003: real time    0.0004
    --------------------------------------------
      LOOP:  cpu time    0.8156: real time    0.8158

 eigenvalue-minimisations  :   704
 total energy-change (2. order) : 0.2232190E+03  (-0.1006565E+04)
 number of electron      34.0000000 magnetization 
 augmentation part       34.0000000 magnetization 

 DIPCOR: dipole corrections for dipol
 direction  3 min pos   183,
 dipolmoment           0.000000      0.000000     -0.000023 electrons x Angstroem
 Tr[quadrupol]       -78.522525

 energy correction for charged system         0.000000 eV
 dipol+quadrupol energy correction           -0.000000 eV
 added-field ion interaction          0.000202 eV  (added to PSCEN)


 Free energy of the ion-electron system (eV)
  ---------------------------------------------------
  alpha Z        PSCENC =        42.79302690
  Ewald energy   TEWEN  =      6028.81613521
  -Hartree energ DENC   =     -8219.11136661
  -exchange      EXHF   =         0.00000000
  -V(xc)+E(xc)   XCENC  =        37.27409210
  PAW double counting   =      2012.60260865    -1949.97488812
  entropy T*S    EENTRO =        -0.00918158
  eigenvalues    EBANDS =        34.52398916
  atomic energy  EATOM  =      2236.30457717
  Solvation  Ediel_sol  =         0.00000000
  ---------------------------------------------------
  free energy    TOTEN  =       223.21899287 eV

  energy without entropy =      223.22817445  energy(sigma->0) =      223.22358366


--------------------------------------------------------------------------------------------------------




--------------------------------------- Iteration      1(   2)  ---------------------------------------


     EDDAV:  cpu time    0.8343: real time    0.8344
       DOS:  cpu time    0.0009: real time    0.0009
    --------------------------------------------
      LOOP:  cpu time    0.8352: real time    0.8353

 eigenvalue-minimisations  :  1056
 total energy-change (2. order) :-0.2206273E+03  (-0.2096599E+03)
 number of electron      34.0000000 magnetization 
 augmentation part       34.0000000 magnetization 

 DIPCOR: dipole corrections for dipol
 direction  3 min pos   183,
 dipolmoment           0.000000      0.000000     -0.000023 electrons x Angstroem
 Tr[quadrupol]       -78.522525

 energy correction for charged system         0.000000 eV
 dipol+quadrupol energy correction           -0.000000 eV
 added-field ion interaction          0.000202 eV  (added to PSCEN)


 Free energy of the ion-electron system (eV)
  ---------------------------------------------------
  alpha Z        PSCENC =        42.79302690
  Ewald energy   TEWEN  =      6028.81613521
  -Hartree energ DENC   =     -8219.11136661
  -exchange      EXHF   =         0.00000000
  -V(xc)+E(xc)   XCENC  =        37.27409210
  PAW double counting   =      2012.60260865    -1949.97488812
  entropy T*S    EENTRO =        -0.00014543
  eigenvalues    EBANDS =      -186.11233037
  atomic energy  EATOM  =      2236.30457717
  Solvation  Ediel_sol  =         0.00000000
  ---------------------------------------------------
  free energy    TOTEN  =         2.59170948 eV

  energy without entropy =        2.59185492  energy(sigma->0) =        2.59178220


--------------------------------------------------------------------------------------------------------




--------------------------------------- Iteration      1(   3)  ---------------------------------------


     EDDAV:  cpu time    0.7003: real time    0.7004
       DOS:  cpu time    0.0002: real time    0.0002
    --------------------------------------------
      LOOP:  cpu time    0.7005: real time    0.7007

 eigenvalue-minimisations  :   854
 total energy-change (2. order) :-0.1959864E+02  (-0.1928155E+02)
 number of electron      34.0000000 magnetization 
 augmentation part       34.0000000 magnetization 

 DIPCOR: dipole corrections for dipol
 direction  3 min pos   183,
 dipolmoment           0.000000      0.000000     -0.000023 electrons x Angstroem
 Tr[quadrupol]       -78.522525

 energy correction for charged system         0.000000 eV
 dipol+quadrupol energy correction           -0.000000 eV
 added-field ion interaction          0.000202 eV  (added to PSCEN)


 Free energy of the ion-electron system (eV)
  ---------------------------------------------------
  alpha Z        PSCENC =        42.79302690
  Ewald energy   TEWEN  =      6028.81613521
  -Hartree energ DENC   =     -8219.11136661
  -exchange      EXHF   =         0.00000000
  -V(xc)+E(xc)   XCENC  =        37.27409210
  PAW double counting   =      2012.60260865    -1949.97488812
  entropy T*S    EENTRO =        -0.00000000
  eigenvalues    EBANDS =      -205.71111101
  atomic energy  EATOM  =      2236.30457717
  Solvation  Ediel_sol  =         0.00000000
  ---------------------------------------------------
  free energy    TOTEN  =       -17.00692572 eV

  energy without entropy =      -17.00692572  energy(sigma->0) =      -17.00692572


--------------------------------------------------------------------------------------------------------




--------------------------------------- Iteration      1(   4)  ---------------------------------------


     EDDAV:  cpu time    0.6951: real time    0.6952
       DOS:  cpu time    0.0002: real time    0.0002
    --------------------------------------------
      LOOP:  cpu time    0.6954: real time    0.6954

 eigenvalue-minimisations  :   848
 total energy-change (2. order) :-0.4280087E+00  (-0.4271199E+00)
 number of electron      34.0000000 magnetization 
 augmentation part       34.0000000 magnetization 

 DIPCOR: dipole corrections for dipol
 direction  3 min pos   183,
 dipolmoment           0.000000      0.000000     -0.000023 electrons x Angstroem
 Tr[quadrupol]       -78.522525

 energy correction for charged system         0.000000 eV
 dipol+quadrupol energy correction           -0.000000 eV
 added-field ion interaction          0.000202 eV  (added to PSCEN)


 Free energy of the ion-electron system (eV)
  ---------------------------------------------------
  alpha Z        PSCENC =        42.79302690
  Ewald energy   TEWEN  =      6028.81613521
  -Hartree energ DENC   =     -8219.11136661
  -exchange      EXHF   =         0.00000000
  -V(xc)+E(xc)   XCENC  =        37.27409210
  PAW double counting   =      2012.60260865    -1949.97488812
  entropy T*S    EENTRO =        -0.00000000
  eigenvalues    EBANDS =      -206.13911969
  atomic energy  EATOM  =      2236.30457717
  Solvation  Ediel_sol  =         0.00000000
  ---------------------------------------------------
  free energy    TOTEN  =       -17.43493440 eV

  energy without entropy =      -17.43493440  energy(sigma->0) =      -17.43493440


--------------------------------------------------------------------------------------------------------




--------------------------------------- Iteration      1(   5)  ---------------------------------------


     EDDAV:  cpu time    0.7134: real time    0.7134
       DOS:  cpu time    0.0002: real time    0.0002
    CHARGE:  cpu time    0.0716: real time    0.0716
    MIXING:  cpu time    0.0064: real time    0.0064
    --------------------------------------------
      LOOP:  cpu time    0.7917: real time    0.7918

 eigenvalue-minimisations  :   872
 total energy-change (2. order) :-0.1052508E-01  (-0.1052314E-01)
 number of electron      33.9999999 magnetization 
 augmentation part        3.4305366 magnetization 

 DIPCOR: dipole corrections for dipol
 direction  3 min pos   183,
 dipolmoment           0.000000      0.000000     -0.000023 electrons x Angstroem
 Tr[quadrupol]       -78.522525

 energy correction for charged system         0.000000 eV
 dipol+quadrupol energy correction           -0.000000 eV
 added-field ion interaction          0.000202 eV  (added to PSCEN)


 Broyden mixing:
  rms(total) = 0.16179E+01    rms(broyden)= 0.16177E+01
  rms(prec ) = 0.16409E+01
  weight for this iteration     100.00

 Free energy of the ion-electron system (eV)
  ---------------------------------------------------
  alpha Z        PSCENC =        42.79302690
  Ewald energy   TEWEN  =      6028.81613521
  -Hartree energ DENC   =     -8219.11136661
  -exchange      EXHF   =         0.00000000
  -V(xc)+E(xc)   XCENC  =        37.27409210
  PAW double counting   =      2012.60260865    -1949.97488812
  entropy T*S    EENTRO =        -0.00000000
  eigenvalues    EBANDS =      -206.14964477
  atomic energy  EATOM  =      2236.30457717
  Solvation  Ediel_sol  =         0.00000000
  ---------------------------------------------------
  free energy    TOTEN  =       -17.44545948 eV

  energy without entropy =      -17.44545948  energy(sigma->0) =      -17.44545948


--------------------------------------------------------------------------------------------------------




--------------------------------------- Iteration      1(   6)  ---------------------------------------


    POTLOK:  cpu time    0.1960: real time    0.1960
    SETDIJ:  cpu time    0.0055: real time    0.0055
     EDDAV:  cpu time    0.7137: real time    0.7138
       DOS:  cpu time    0.0002: real time    0.0002
    CHARGE:  cpu time    0.0709: real time    0.0710
    MIXING:  cpu time    0.0066: real time    0.0066
    --------------------------------------------
      LOOP:  cpu time    0.9930: real time    0.9939

 eigenvalue-minimisations  :   866
 total energy-change (2. order) : 0.8464703E+00  (-0.2266014E+00)
 number of electron      33.9999999 magnetization 
 augmentation part        3.8439756 magnetization 

 DIPCOR: dipole corrections for dipol
 direction  3 min pos   185,
 dipolmoment           0.000000      0.000000     -0.034084 electrons x Angstroem
 Tr[quadrupol]       -78.471401

 energy correction for charged system         0.000000 eV
 dipol+quadrupol energy correction           -0.000463 eV
 added-field ion interaction          0.148711 eV  (added to PSCEN)


 Broyden mixing:
  rms(total) = 0.91009E+00    rms(broyden)= 0.91008E+00
  rms(prec ) = 0.91462E+00
  weight for this iteration     100.00

 eigenvalues of (default mixing * dielectric matrix)
  average eigenvalue GAMMA=   1.8886
  1.8886

 Free energy of the ion-electron system (eV)
  ---------------------------------------------------
  alpha Z        PSCENC =        42.94107270
  Ewald energy   TEWEN  =      6028.81613521
  -Hartree energ DENC   =     -8203.97378678
  -exchange      EXHF   =         0.00000000
  -V(xc)+E(xc)   XCENC  =        36.98606774
  PAW double counting   =      2288.98787082    -2229.48516675
  entropy T*S    EENTRO =        -0.00000000
  eigenvalues    EBANDS =      -217.17575931
  atomic energy  EATOM  =      2236.30457717
  Solvation  Ediel_sol  =         0.00000000
  ---------------------------------------------------
  free energy    TOTEN  =       -16.59898920 eV

  energy without entropy =      -16.59898920  energy(sigma->0) =      -16.59898920


--------------------------------------------------------------------------------------------------------




--------------------------------------- Iteration      1(   7)  ---------------------------------------


    POTLOK:  cpu time    0.1996: real time    0.2004
    SETDIJ:  cpu time    0.0054: real time    0.0054
     EDDAV:  cpu time    0.6751: real time    0.6751
       DOS:  cpu time    0.0003: real time    0.0034
    CHARGE:  cpu time    0.0795: real time    0.0795
    MIXING:  cpu time    0.0066: real time    0.0066
    --------------------------------------------
      LOOP:  cpu time    0.9665: real time    0.9698

 eigenvalue-minimisations  :   812
 total energy-change (2. order) :-0.6222394E-02  (-0.5737709E-01)
 number of electron      33.9999999 magnetization 
 augmentation part        3.8171012 magnetization 

 DIPCOR: dipole corrections for dipol
 direction  3 min pos   179,
 dipolmoment           0.000000      0.000000     -0.004064 electrons x Angstroem
 Tr[quadrupol]       -78.716864

 energy correction for charged system         0.000000 eV
 dipol+quadrupol energy correction           -0.000007 eV
 added-field ion interaction          0.072850 eV  (added to PSCEN)


 Broyden mixing:
  rms(total) = 0.31324E+00    rms(broyden)= 0.31323E+00
  rms(prec ) = 0.33523E+00
  weight for this iteration     100.00

 eigenvalues of (default mixing * dielectric matrix)
  average eigenvalue GAMMA=   1.5683
  0.8282  2.3084

 Free energy of the ion-electron system (eV)
  ---------------------------------------------------
  alpha Z        PSCENC =        42.86566798
  Ewald energy   TEWEN  =      6028.81613521
  -Hartree energ DENC   =     -8208.71517588
  -exchange      EXHF   =         0.00000000
  -V(xc)+E(xc)   XCENC  =        36.89823853
  PAW double counting   =      2626.69025162    -2569.41391104
  entropy T*S    EENTRO =        -0.00000000
  eigenvalues    EBANDS =      -210.05099519
  atomic energy  EATOM  =      2236.30457717
  Solvation  Ediel_sol  =         0.00000000
  ---------------------------------------------------
  free energy    TOTEN  =       -16.60521160 eV

  energy without entropy =      -16.60521160  energy(sigma->0) =      -16.60521160


--------------------------------------------------------------------------------------------------------




--------------------------------------- Iteration      1(   8)  ---------------------------------------


    POTLOK:  cpu time    0.1982: real time    0.1982
    SETDIJ:  cpu time    0.0057: real time    0.0057
     EDDAV:  cpu time    0.6821: real time    0.6822
       DOS:  cpu time    0.0002: real time    0.0002
    CHARGE:  cpu time    0.0702: real time    0.0702
    MIXING:  cpu time    0.0133: real time    0.0133
    --------------------------------------------
      LOOP:  cpu time    0.9696: real time    0.9697

 eigenvalue-minimisations  :   830
 total energy-change (2. order) :-0.5124562E-01  (-0.4368216E-01)
 number of electron      33.9999999 magnetization 
 augmentation part        3.8222801 magnetization 

 DIPCOR: dipole corrections for dipol
 direction  3 min pos   187,
 dipolmoment           0.000000      0.000000     -0.071877 electrons x Angstroem
 Tr[quadrupol]       -78.721329

 energy correction for charged system         0.000000 eV
 dipol+quadrupol energy correction           -0.002061 eV
 added-field ion interaction         -0.011328 eV  (added to PSCEN)


 Broyden mixing:
  rms(total) = 0.25078E+00    rms(broyden)= 0.25073E+00
  rms(prec ) = 0.30437E+00
  weight for this iteration     100.00

 eigenvalues of (default mixing * dielectric matrix)
  average eigenvalue GAMMA=   1.2656
  2.4365  0.9532  0.4071

 Free energy of the ion-electron system (eV)
  ---------------------------------------------------
  alpha Z        PSCENC =        42.77943671
  Ewald energy   TEWEN  =      6028.81613521
  -Hartree energ DENC   =     -8208.08697196
  -exchange      EXHF   =         0.00000000
  -V(xc)+E(xc)   XCENC  =        36.91597583
  PAW double counting   =      2740.76956041    -2684.14254543
  entropy T*S    EENTRO =        -0.00000000
  eigenvalues    EBANDS =      -210.01262515
  atomic energy  EATOM  =      2236.30457717
  Solvation  Ediel_sol  =         0.00000000
  ---------------------------------------------------
  free energy    TOTEN  =       -16.65645721 eV

  energy without entropy =      -16.65645721  energy(sigma->0) =      -16.65645721


--------------------------------------------------------------------------------------------------------




--------------------------------------- Iteration      1(   9)  ---------------------------------------


    POTLOK:  cpu time    0.1942: real time    0.1943
    SETDIJ:  cpu time    0.0054: real time    0.0054
     EDDAV:  cpu time    0.6692: real time    0.6693
       DOS:  cpu time    0.0002: real time    0.0002
    CHARGE:  cpu time    0.0712: real time    0.0712
    MIXING:  cpu time    0.0069: real time    0.0069
    --------------------------------------------
      LOOP:  cpu time    0.9472: real time    0.9473

 eigenvalue-minimisations  :   812
 total energy-change (2. order) : 0.1077093E+00  (-0.1543374E-01)
 number of electron      33.9999999 magnetization 
 augmentation part        3.8493776 magnetization 

 DIPCOR: dipole corrections for dipol
 direction  3 min pos   194,
 dipolmoment           0.000000      0.000000     -0.033652 electrons x Angstroem
 Tr[quadrupol]       -78.668257

 energy correction for charged system         0.000000 eV
 dipol+quadrupol energy correction           -0.000452 eV
 added-field ion interaction         -0.537754 eV  (added to PSCEN)


 Broyden mixing:
  rms(total) = 0.41924E-01    rms(broyden)= 0.41846E-01
  rms(prec ) = 0.44111E-01
  weight for this iteration     100.00

 eigenvalues of (default mixing * dielectric matrix)
  average eigenvalue GAMMA=   1.2972
  2.4705  1.4259  0.8958  0.3964

 Free energy of the ion-electron system (eV)
  ---------------------------------------------------
  alpha Z        PSCENC =        42.25461897
  Ewald energy   TEWEN  =      6028.81613521
  -Hartree energ DENC   =     -8207.09342757
  -exchange      EXHF   =         0.00000000
  -V(xc)+E(xc)   XCENC  =        36.92453722
  PAW double counting   =      2766.02584369    -2709.52065215
  entropy T*S    EENTRO =        -0.00000000
  eigenvalues    EBANDS =      -210.26038044
  atomic energy  EATOM  =      2236.30457717
  Solvation  Ediel_sol  =         0.00000000
  ---------------------------------------------------
  free energy    TOTEN  =       -16.54874789 eV

  energy without entropy =      -16.54874789  energy(sigma->0) =      -16.54874789


--------------------------------------------------------------------------------------------------------




--------------------------------------- Iteration      1(  10)  ---------------------------------------


    POTLOK:  cpu time    0.1934: real time    0.1934
    SETDIJ:  cpu time    0.0073: real time    0.0073
     EDDAV:  cpu time    0.6402: real time    0.6403
       DOS:  cpu time    0.0002: real time    0.0002
    CHARGE:  cpu time    0.0716: real time    0.0716
    MIXING:  cpu time    0.0069: real time    0.0069
    --------------------------------------------
      LOOP:  cpu time    0.9197: real time    0.9198

 eigenvalue-minimisations  :   758
 total energy-change (2. order) : 0.7474641E-03  (-0.2540400E-02)
 number of electron      33.9999999 magnetization 
 augmentation part        3.8477235 magnetization 

 DIPCOR: dipole corrections for dipol
 direction  3 min pos   196,
 dipolmoment           0.000000      0.000000     -0.039435 electrons x Angstroem
 Tr[quadrupol]       -78.643809

 energy correction for charged system         0.000000 eV
 dipol+quadrupol energy correction           -0.000620 eV
 added-field ion interaction         -0.808456 eV  (added to PSCEN)


 Broyden mixing:
  rms(total) = 0.13522E-01    rms(broyden)= 0.13519E-01
  rms(prec ) = 0.15485E-01
  weight for this iteration     100.00

 eigenvalues of (default mixing * dielectric matrix)
  average eigenvalue GAMMA=   1.2229
  2.4733  1.4454  0.9043  0.9043  0.3871

 Free energy of the ion-electron system (eV)
  ---------------------------------------------------
  alpha Z        PSCENC =        41.98374887
  Ewald energy   TEWEN  =      6028.81613521
  -Hartree energ DENC   =     -8207.31914145
  -exchange      EXHF   =         0.00000000
  -V(xc)+E(xc)   XCENC  =        36.95885319
  PAW double counting   =      2772.73568230    -2716.18354132
  entropy T*S    EENTRO =        -0.00000000
  eigenvalues    EBANDS =      -209.84431440
  atomic energy  EATOM  =      2236.30457717
  Solvation  Ediel_sol  =         0.00000000
  ---------------------------------------------------
  free energy    TOTEN  =       -16.54800042 eV

  energy without entropy =      -16.54800042  energy(sigma->0) =      -16.54800042


--------------------------------------------------------------------------------------------------------




--------------------------------------- Iteration      1(  11)  ---------------------------------------


    POTLOK:  cpu time    0.1941: real time    0.1941
    SETDIJ:  cpu time    0.0116: real time    0.0116
     EDDAV:  cpu time    0.6672: real time    0.6672
       DOS:  cpu time    0.0002: real time    0.0002
    CHARGE:  cpu time    0.0710: real time    0.0710
    MIXING:  cpu time    0.0069: real time    0.0069
    --------------------------------------------
      LOOP:  cpu time    0.9511: real time    0.9512

 eigenvalue-minimisations  :   800
 total energy-change (2. order) : 0.4964822E-04  (-0.1938013E-03)
 number of electron      33.9999999 magnetization 
 augmentation part        3.8450388 magnetization 

 DIPCOR: dipole corrections for dipol
 direction  3 min pos   198,
 dipolmoment           0.000000      0.000000     -0.038655 electrons x Angstroem
 Tr[quadrupol]       -78.642178

 energy correction for charged system         0.000000 eV
 dipol+quadrupol energy correction           -0.000596 eV
 added-field ion interaction         -0.967212 eV  (added to PSCEN)


 Broyden mixing:
  rms(total) = 0.82445E-02    rms(broyden)= 0.82425E-02
  rms(prec ) = 0.85746E-02
  weight for this iteration     100.00

 eigenvalues of (default mixing * dielectric matrix)
  average eigenvalue GAMMA=   1.2403
  2.4030  1.9491  0.3875  0.8619  0.8619  0.9782

 Free energy of the ion-electron system (eV)
  ---------------------------------------------------
  alpha Z        PSCENC =        41.82501729
  Ewald energy   TEWEN  =      6028.81613521
  -Hartree energ DENC   =     -8207.69672223
  -exchange      EXHF   =         0.00000000
  -V(xc)+E(xc)   XCENC  =        36.96502519
  PAW double counting   =      2771.96645289    -2715.40624336
  entropy T*S    EENTRO =        -0.00000000
  eigenvalues    EBANDS =      -209.32219292
  atomic energy  EATOM  =      2236.30457717
  Solvation  Ediel_sol  =         0.00000000
  ---------------------------------------------------
  free energy    TOTEN  =       -16.54795078 eV

  energy without entropy =      -16.54795078  energy(sigma->0) =      -16.54795078


--------------------------------------------------------------------------------------------------------




--------------------------------------- Iteration      1(  12)  ---------------------------------------


    POTLOK:  cpu time    0.1973: real time    0.1973
    SETDIJ:  cpu time    0.0055: real time    0.0055
     EDDAV:  cpu time    0.7015: real time    0.7016
       DOS:  cpu time    0.0002: real time    0.0002
    --------------------------------------------
      LOOP:  cpu time    0.9045: real time    0.9046

 eigenvalue-minimisations  :   850
 total energy-change (2. order) :-0.2727577E-04  (-0.1690514E-04)
 number of electron      33.9999999 magnetization 
 augmentation part        3.8450388 magnetization 

 DIPCOR: dipole corrections for dipol
 direction  3 min pos   199,
 dipolmoment           0.000000      0.000000     -0.038231 electrons x Angstroem
 Tr[quadrupol]       -78.641547

 energy correction for charged system         0.000000 eV
 dipol+quadrupol energy correction           -0.000583 eV
 added-field ion interaction         -1.043005 eV  (added to PSCEN)


 Free energy of the ion-electron system (eV)
  ---------------------------------------------------
  alpha Z        PSCENC =        41.74923714
  Ewald energy   TEWEN  =      6028.81613521
  -Hartree energ DENC   =     -8207.93077472
  -exchange      EXHF   =         0.00000000
  -V(xc)+E(xc)   XCENC  =        36.96947569
  PAW double counting   =      2769.69563180    -2713.12422944
  entropy T*S    EENTRO =        -0.00000000
  eigenvalues    EBANDS =      -209.02803091
  atomic energy  EATOM  =      2236.30457717
  Solvation  Ediel_sol  =         0.00000000
  ---------------------------------------------------
  free energy    TOTEN  =       -16.54797805 eV

  energy without entropy =      -16.54797805  energy(sigma->0) =      -16.54797805


--------------------------------------------------------------------------------------------------------




 average (electrostatic) potential at core
  the test charge radii are     0.9406  1.0178  1.2059
  (the norm of the test charge is              1.0000)
       1 -97.7602       2 -67.9054       3 -75.0706       4 -75.0232
 
 
 
 E-fermi :  -1.4018     XC(G=0):  -4.3666     alpha+bet : -3.9942


 k-point     1 :       0.0000    0.0000    0.0000
  band No.  band energies     occupation 
      1     -17.6280      2.00000
      2     -17.4880      2.00000
      3      -8.1287      2.00000
      4      -6.8879      2.00000
      5      -6.8774      2.00000
      6      -6.8737      2.00000
      7      -5.8675      2.00000
      8      -5.8056      2.00000
      9      -4.4332      2.00000
     10      -4.4078      2.00000
     11      -3.7997      2.00000
     12      -2.8215      2.00000
     13      -2.7853      2.00000
     14      -2.7083      2.00000
     15      -2.1111      2.00000
     16      -2.1002      2.00000
     17      -2.0414      2.00000
     18      -0.2196      0.00000
     19      -0.1721      0.00000
     20       2.2162      0.00000
     21       3.2425      0.00000
     22       3.8437      0.00000

 k-point     2 :       0.2500   -0.0000    0.0000
  band No.  band energies     occupation 
      1     -17.3693      2.00000
      2     -17.2682      2.00000
      3      -7.7520      2.00000
      4      -7.0633      2.00000
      5      -6.7477      2.00000
      6      -6.6427      2.00000
      7      -6.2824      2.00000
      8      -5.4759      2.00000
      9      -5.1474      2.00000
     10      -4.6811      2.00000
     11      -4.4595      2.00000
     12      -3.0784      2.00000
     13      -2.8808      2.00000
     14      -2.8506      2.00000
     15      -2.2320      2.00000
     16      -2.1901      2.00000
     17      -1.9248      2.00000
     18      -0.1101      0.00000
     19       0.3521      0.00000
     20       3.6672      0.00000
     21       4.0326      0.00000
     22       4.5232      0.00000

 k-point     3 :       0.5000   -0.0000    0.0000
  band No.  band energies     occupation 
      1     -17.1391      2.00000
      2     -16.9791      2.00000
      3      -7.8716      2.00000
      4      -7.5741      2.00000
      5      -6.5708      2.00000
      6      -6.5479      2.00000
      7      -6.1379      2.00000
      8      -5.7765      2.00000
      9      -4.7490      2.00000
     10      -4.5153      2.00000
     11      -3.4555      2.00000
     12      -3.3041      2.00000
     13      -3.1922      2.00000
     14      -2.9369      2.00000
     15      -2.8975      2.00000
     16      -2.8864      2.00000
     17      -2.4268      2.00000
     18      -0.1253      0.00000
     19       1.2793      0.00000
     20       2.4490      0.00000
     21       4.5798      0.00000
     22       4.9116      0.00000

 k-point     4 :      -0.2500    0.0000    0.0000
  band No.  band energies     occupation 
      1     -17.3693      2.00000
      2     -17.2682      2.00000
      3      -7.7520      2.00000
      4      -7.0633      2.00000
      5      -6.7477      2.00000
      6      -6.6427      2.00000
      7      -6.2824      2.00000
      8      -5.4759      2.00000
      9      -5.1474      2.00000
     10      -4.6811      2.00000
     11      -4.4595      2.00000
     12      -3.0784      2.00000
     13      -2.8808      2.00000
     14      -2.8506      2.00000
     15      -2.2320      2.00000
     16      -2.1901      2.00000
     17      -1.9248      2.00000
     18      -0.1101      0.00000
     19       0.3521      0.00000
     20       3.6672      0.00000
     21       4.0326      0.00000
     22       4.5232      0.00000

 k-point     5 :      -0.0000    0.2500    0.0000
  band No.  band energies     occupation 
      1     -17.3629      2.00000
      2     -17.2609      2.00000
      3      -7.7364      2.00000
      4      -7.0669      2.00000
      5      -6.7467      2.00000
      6      -6.6301      2.00000
      7      -6.2795      2.00000
      8      -5.5103      2.00000
      9      -5.1574      2.00000
     10      -4.7284      2.00000
     11      -4.4247      2.00000
     12      -3.0706      2.00000
     13      -2.8887      2.00000
     14      -2.8583      2.00000
     15      -2.2252      2.00000
     16      -2.1831      2.00000
     17      -1.9135      2.00000
     18      -0.1407      0.00000
     19       0.3912      0.00000
     20       3.6955      0.00000
     21       4.0405      0.00000
     22       4.5333      0.00000

 k-point     6 :       0.2500    0.2500    0.0000
  band No.  band energies     occupation 
      1     -17.1361      2.00000
      2     -16.9731      2.00000
      3      -7.5522      2.00000
      4      -7.0983      2.00000
      5      -7.0038      2.00000
      6      -6.3151      2.00000
      7      -6.2063      2.00000
      8      -5.8667      2.00000
      9      -5.3724      2.00000
     10      -5.1348      2.00000
     11      -3.7889      2.00000
     12      -3.3935      2.00000
     13      -3.1413      2.00000
     14      -2.9380      2.00000
     15      -2.8741      2.00000
     16      -2.2880      2.00000
     17      -1.9642      2.00000
     18      -0.1894      0.00000
     19       1.4082      0.00000
     20       3.1595      0.00000
     21       4.6474      0.00000
     22       5.6034      0.00000

 k-point     7 :       0.5000    0.2500    0.0000
  band No.  band energies     occupation 
      1     -17.1423      2.00000
      2     -16.9818      2.00000
      3      -7.5280      2.00000
      4      -7.0716      2.00000
      5      -7.0303      2.00000
      6      -6.3065      2.00000
      7      -6.1992      2.00000
      8      -5.8797      2.00000
      9      -5.3827      2.00000
     10      -5.1464      2.00000
     11      -3.7965      2.00000
     12      -3.3769      2.00000
     13      -3.1778      2.00000
     14      -2.9444      2.00000
     15      -2.8808      2.00000
     16      -2.2683      2.00000
     17      -1.9650      2.00000
     18      -0.1754      0.00000
     19       1.3620      0.00000
     20       3.1818      0.00000
     21       4.6647      0.00000
     22       5.6168      0.00000

 k-point     8 :      -0.2500    0.2500    0.0000
  band No.  band energies     occupation 
      1     -17.3693      2.00000
      2     -17.2681      2.00000
      3      -7.7518      2.00000
      4      -7.0633      2.00000
      5      -6.7478      2.00000
      6      -6.6425      2.00000
      7      -6.2823      2.00000
      8      -5.4763      2.00000
      9      -5.1475      2.00000
     10      -4.6816      2.00000
     11      -4.4591      2.00000
     12      -3.0784      2.00000
     13      -2.8810      2.00000
     14      -2.8505      2.00000
     15      -2.2319      2.00000
     16      -2.1900      2.00000
     17      -1.9247      2.00000
     18      -0.1105      0.00000
     19       0.3526      0.00000
     20       3.6675      0.00000
     21       4.0327      0.00000
     22       4.5233      0.00000

 k-point     9 :      -0.0000    0.5000    0.0000
  band No.  band energies     occupation 
      1     -17.1273      2.00000
      2     -16.9619      2.00000
      3      -7.8567      2.00000
      4      -7.5752      2.00000
      5      -6.5731      2.00000
      6      -6.5622      2.00000
      7      -6.1298      2.00000
      8      -5.8261      2.00000
      9      -4.7250      2.00000
     10      -4.5172      2.00000
     11      -3.4850      2.00000
     12      -3.2901      2.00000
     13      -3.2233      2.00000
     14      -2.9415      2.00000
     15      -2.8695      2.00000
     16      -2.8355      2.00000
     17      -2.4248      2.00000
     18      -0.1574      0.00000
     19       1.3723      0.00000
     20       2.4096      0.00000
     21       4.5835      0.00000
     22       4.8570      0.00000

 k-point    10 :       0.2500    0.5000    0.0000
  band No.  band energies     occupation 
      1     -17.1360      2.00000
      2     -16.9730      2.00000
      3      -7.5524      2.00000
      4      -7.0986      2.00000
      5      -7.0035      2.00000
      6      -6.3152      2.00000
      7      -6.2064      2.00000
      8      -5.8665      2.00000
      9      -5.3722      2.00000
     10      -5.1347      2.00000
     11      -3.7888      2.00000
     12      -3.3937      2.00000
     13      -3.1407      2.00000
     14      -2.9381      2.00000
     15      -2.8739      2.00000
     16      -2.2883      2.00000
     17      -1.9642      2.00000
     18      -0.1895      0.00000
     19       1.4087      0.00000
     20       3.1592      0.00000
     21       4.6472      0.00000
     22       5.6032      0.00000

 k-point    11 :       0.5000    0.5000    0.0000
  band No.  band energies     occupation 
      1     -17.1390      2.00000
      2     -16.9789      2.00000
      3      -7.8714      2.00000
      4      -7.5741      2.00000
      5      -6.5709      2.00000
      6      -6.5481      2.00000
      7      -6.1378      2.00000
      8      -5.7770      2.00000
      9      -4.7487      2.00000
     10      -4.5153      2.00000
     11      -3.4559      2.00000
     12      -3.3039      2.00000
     13      -3.1926      2.00000
     14      -2.9367      2.00000
     15      -2.8972      2.00000
     16      -2.8859      2.00000
     17      -2.4268      2.00000
     18      -0.1257      0.00000
     19       1.2804      0.00000
     20       2.4486      0.00000
     21       4.5799      0.00000
     22       4.9109      0.00000

 k-point    12 :      -0.2500    0.5000    0.0000
  band No.  band energies     occupation 
      1     -17.1360      2.00000
      2     -16.9730      2.00000
      3      -7.5524      2.00000
      4      -7.0986      2.00000
      5      -7.0035      2.00000
      6      -6.3152      2.00000
      7      -6.2064      2.00000
      8      -5.8665      2.00000
      9      -5.3722      2.00000
     10      -5.1347      2.00000
     11      -3.7888      2.00000
     12      -3.3937      2.00000
     13      -3.1407      2.00000
     14      -2.9381      2.00000
     15      -2.8739      2.00000
     16      -2.2883      2.00000
     17      -1.9642      2.00000
     18      -0.1895      0.00000
     19       1.4087      0.00000
     20       3.1592      0.00000
     21       4.6472      0.00000
     22       5.6032      0.00000

 k-point    13 :       0.0000   -0.2500    0.0000
  band No.  band energies     occupation 
      1     -17.3629      2.00000
      2     -17.2609      2.00000
      3      -7.7364      2.00000
      4      -7.0669      2.00000
      5      -6.7467      2.00000
      6      -6.6301      2.00000
      7      -6.2795      2.00000
      8      -5.5103      2.00000
      9      -5.1574      2.00000
     10      -4.7284      2.00000
     11      -4.4247      2.00000
     12      -3.0706      2.00000
     13      -2.8887      2.00000
     14      -2.8583      2.00000
     15      -2.2252      2.00000
     16      -2.1831      2.00000
     17      -1.9135      2.00000
     18      -0.1407      0.00000
     19       0.3912      0.00000
     20       3.6955      0.00000
     21       4.0405      0.00000
     22       4.5333      0.00000

 k-point    14 :       0.2500   -0.2500    0.0000
  band No.  band energies     occupation 
      1     -17.3693      2.00000
      2     -17.2681      2.00000
      3      -7.7518      2.00000
      4      -7.0633      2.00000
      5      -6.7478      2.00000
      6      -6.6425      2.00000
      7      -6.2823      2.00000
      8      -5.4763      2.00000
      9      -5.1475      2.00000
     10      -4.6816      2.00000
     11      -4.4591      2.00000
     12      -3.0784      2.00000
     13      -2.8810      2.00000
     14      -2.8505      2.00000
     15      -2.2319      2.00000
     16      -2.1900      2.00000
     17      -1.9247      2.00000
     18      -0.1105      0.00000
     19       0.3526      0.00000
     20       3.6675      0.00000
     21       4.0327      0.00000
     22       4.5233      0.00000

 k-point    15 :       0.5000   -0.2500    0.0000
  band No.  band energies     occupation 
      1     -17.1423      2.00000
      2     -16.9818      2.00000
      3      -7.5280      2.00000
      4      -7.0716      2.00000
      5      -7.0303      2.00000
      6      -6.3065      2.00000
      7      -6.1992      2.00000
      8      -5.8797      2.00000
      9      -5.3827      2.00000
     10      -5.1464      2.00000
     11      -3.7965      2.00000
     12      -3.3769      2.00000
     13      -3.1778      2.00000
     14      -2.9444      2.00000
     15      -2.8808      2.00000
     16      -2.2683      2.00000
     17      -1.9650      2.00000
     18      -0.1754      0.00000
     19       1.3620      0.00000
     20       3.1818      0.00000
     21       4.6647      0.00000
     22       5.6168      0.00000

 k-point    16 :      -0.2500   -0.2500    0.0000
  band No.  band energies     occupation 
      1     -17.1361      2.00000
      2     -16.9731      2.00000
      3      -7.5522      2.00000
      4      -7.0983      2.00000
      5      -7.0038      2.00000
      6      -6.3151      2.00000
      7      -6.2063      2.00000
      8      -5.8667      2.00000
      9      -5.3724      2.00000
     10      -5.1348      2.00000
     11      -3.7889      2.00000
     12      -3.3935      2.00000
     13      -3.1413      2.00000
     14      -2.9380      2.00000
     15      -2.8741      2.00000
     16      -2.2880      2.00000
     17      -1.9642      2.00000
     18      -0.1894      0.00000
     19       1.4082      0.00000
     20       3.1595      0.00000
     21       4.6474      0.00000
     22       5.6034      0.00000


--------------------------------------------------------------------------------------------------------


 soft charge-density along one line, spin component           1
         0         1         2         3         4         5         6         7         8         9
 total charge-density along one line
 
 pseudopotential strength for first ion, spin component:           1
 49.266  51.705  -0.001   0.039  -0.000  -0.001   0.048  -0.000
 51.705  54.267  -0.001   0.041  -0.000  -0.001   0.050  -0.000
 -0.001  -0.001   9.298  -0.000  -0.000  11.526  -0.000  -0.000
  0.039   0.041  -0.000   9.297  -0.000  -0.000  11.524  -0.000
 -0.000  -0.000  -0.000  -0.000   9.298  -0.000  -0.000  11.526
 -0.001  -0.001  11.526  -0.000  -0.000  14.302  -0.000  -0.000
  0.048   0.050  -0.000  11.524  -0.000  -0.000  14.300  -0.000
 -0.000  -0.000  -0.000  -0.000  11.526  -0.000  -0.000  14.302
 total augmentation occupancy for first ion, spin component:           1
  8.440  -6.419   0.046  -3.056   0.001  -0.020   1.279  -0.000
 -6.419   6.350  -0.045   2.865  -0.001   0.021  -1.266   0.000
  0.046  -0.045   3.584  -0.017   0.000  -1.061   0.010  -0.000
 -3.056   2.865  -0.017   3.373  -0.000   0.010  -0.930   0.000
  0.001  -0.001   0.000  -0.000   3.572  -0.000   0.000  -1.054
 -0.020   0.021  -1.061   0.010  -0.000   0.482  -0.004   0.000
  1.279  -1.266   0.010  -0.930   0.000  -0.004   0.431  -0.000
 -0.000   0.000  -0.000   0.000  -1.054   0.000  -0.000   0.478


------------------------ aborting loop because EDIFF is reached ----------------------------------------


    CHARGE:  cpu time    0.0688: real time    0.0688
    FORLOC:  cpu time    0.0149: real time    0.0149
    FORNL :  cpu time    0.0871: real time    0.0871
    STRESS:  cpu time    0.4841: real time    0.4841
    FORCOR:  cpu time    0.2008: real time    0.2008
    FORHAR:  cpu time    0.0393: real time    0.0393
    MIXING:  cpu time    0.0069: real time    0.0069
    OFIELD:  cpu time    0.0000: real time    0.0000

 ---------------------------------------------------------------------------------------------

         DFTD3 V3.0 Rev 1        
 IVDW         = 11
 DF pbe       
 parameters
 VDW_S6       =    1.0000
 VDW_S8       =    0.7220
 VDW_SR       =    1.2170
 rs18     =    1.0000
 alpha6   =   14.0000
 alpha8   =   16.0000
 k1-k3    =   16.0000    1.3333   -4.0000
 VDW_RADIUS   =   50.2022 A
 VDW_CNRADIUS =   21.1671 A
 Edisp (eV)   -1.24406

 E6    (eV) :    -0.3608
 E8    (eV) :    -0.8832
 % E8        : 71.00
    FORVDW:  cpu time    0.0182: real time    0.0182

  FORCE on cell =-STRESS in cart. coord.  units (eV):
  Direction    XX          YY          ZZ          XY          YZ          ZX
  --------------------------------------------------------------------------------------
  Alpha Z    42.79283    42.79283    42.79283
  Ewald    7547.77196  7552.66358 -9071.61945     0.02402    -6.30441    -0.12727
  Hartree  8026.60364  8028.65576 -7845.88215     0.00985    -2.22774    -0.04512
  E(xc)    -141.14807  -141.17485  -141.60664    -0.00014    -0.00414    -0.00009
  Local  -16202.27716-16209.59818 16283.28731    -0.03574     8.19398     0.16560
  n-local   142.37284   142.92355   144.04412     0.00282    -0.25406    -0.00508
  augment    78.76167    78.79535    79.60333     0.00008     0.05862     0.00121
  Kinetic   506.15481   506.69124   509.87717     0.00267     0.24221     0.00489
  Fock        0.00000     0.00000     0.00000     0.00000     0.00000     0.00000
  vdW        -0.77117    -0.74286    -0.23684     0.00015     0.00536     0.00011
  -------------------------------------------------------------------------------------
  Total       0.26134     1.00642     0.25969     0.00371    -0.29017    -0.00575
  in kB       1.84598     7.10892     1.83432     0.02621    -2.04965    -0.04062
  external pressure =        3.60 kB  Pullay stress =        0.00 kB


 VOLUME and BASIS-vectors are now :
 -----------------------------------------------------------------------------
  energy-cutoff  :      300.00
  volume of cell :      226.82
      direct lattice vectors                 reciprocal lattice vectors
     3.636944978 -0.036443352  0.000000000     0.276534843  0.157559855  0.000000000
    -1.786911496  3.136225858  0.000000000     0.003213371  0.320685453  0.000000000
     0.000000000  0.000000000 20.000000000     0.000000000  0.000000000  0.050000000

  length of vectors
     3.637127560  3.609565808 20.000000000     0.318271311  0.320701552  0.050000000


 FORCES acting on ions
    electron-ion (+dipol)            ewald-force                    non-local-force                 convergence-correction
 -----------------------------------------------------------------------------------------------
   -.288E-01 -.142E+01 0.100E+04   0.300E-01 0.149E+01 -.101E+04   -.320E-03 -.219E-01 0.558E+01   0.156E-04 -.758E-03 -.102E+00
   0.236E-01 0.117E+01 -.101E+04   -.246E-01 -.121E+01 0.101E+04   -.196E-03 -.117E-01 -.268E+01   0.188E-04 0.501E-03 0.112E+00
   0.904E-02 0.453E+00 -.574E+03   -.863E-02 -.434E+00 0.567E+03   -.107E-02 -.547E-01 0.663E+01   -.158E-04 -.152E-03 0.157E+00
   -.359E-02 -.159E+00 0.579E+03   0.323E-02 0.155E+00 -.573E+03   0.105E-02 0.507E-01 -.651E+01   0.271E-03 0.388E-03 -.863E-01
 -----------------------------------------------------------------------------------------------
   0.312E-03 0.376E-01 -.310E+01   0.141E-14 -.394E-14 -.114E-12   -.532E-03 -.375E-01 0.302E+01   0.290E-03 -.218E-04 0.801E-01
 
 
 POSITION                                       TOTAL-FORCE (eV/Angst)
 -----------------------------------------------------------------------------------
     -0.89327      1.56799      3.36693         0.000913      0.046472     -0.080841
     -0.89327      1.56799      7.71448        -0.001170     -0.058394      0.092748
      0.91468      0.51043      6.20974        -0.000681     -0.034607      0.039087
      0.93572      2.58910      4.71353         0.000938      0.046529     -0.050993
 -----------------------------------------------------------------------------------
    total drift:                                0.000071     -0.000005     -0.004494


--------------------------------------------------------------------------------------------------------



  FREE ENERGIE OF THE ION-ELECTRON SYSTEM (eV)
  ---------------------------------------------------
  free  energy   TOTEN  =       -17.79204076 eV

  energy  without entropy=      -17.79204076  energy(sigma->0) =      -17.79204076
 


--------------------------------------------------------------------------------------------------------


    POTLOK:  cpu time    0.1980: real time    0.1980


--------------------------------------------------------------------------------------------------------


 Quasi-Newton relaxation of ions (Broydens 2nd method)
  g(Force)  = 0.136E-02   g(Stress)= 0.824E-03

 Reset! Starting new Quasi-Newton update for ions 


--------------------------------------------------------------------------------------------------------


    WAVPRE:  cpu time    0.8567: real time    0.8568
    FEWALD:  cpu time    0.0002: real time    0.0002
    GENKIN:  cpu time    0.0242: real time    0.0242
    ORTHCH:  cpu time    0.0213: real time    0.0213
     LOOP+:  cpu time   12.5396: real time   12.5448


--------------------------------------- Iteration      2(   1)  ---------------------------------------


    POTLOK:  cpu time    0.2146: real time    0.2147
    SETDIJ:  cpu time    0.0087: real time    0.0087
     EDDAV:  cpu time    0.6207: real time    0.6207
       DOS:  cpu time    0.0002: real time    0.0002
    CHARGE:  cpu time    0.0702: real time    0.0702
    MIXING:  cpu time    0.0064: real time    0.0064
    --------------------------------------------
      LOOP:  cpu time    0.9209: real time    0.9210

 eigenvalue-minimisations  :   704
 total energy-change (2. order) :-0.6881848E-02  (-0.2968929E-01)
 number of electron      33.9999998 magnetization 
 augmentation part        3.8640435 magnetization 

 DIPCOR: dipole corrections for dipol
 direction  3 min pos   199,
 dipolmoment           0.000000      0.000000     -0.037576 electrons x Angstroem
 Tr[quadrupol]       -78.665167

 energy correction for charged system         0.000000 eV
 dipol+quadrupol energy correction           -0.000561 eV
 added-field ion interaction         -1.021970 eV  (added to PSCEN)


 Broyden mixing:
  rms(total) = 0.40020E-01    rms(broyden)= 0.40003E-01
  rms(prec ) = 0.42224E-01
  weight for this iteration     100.00

 Free energy of the ion-electron system (eV)
  ---------------------------------------------------
  alpha Z        PSCENC =        41.63583767
  Ewald energy   TEWEN  =      5994.18728057
[...]
  band No.  band energies     occupation 
      1     -17.1348      2.00000
      2     -16.9659      2.00000
      3      -7.8526      2.00000
      4      -7.5580      2.00000
      5      -6.5499      2.00000
      6      -6.5349      2.00000
      7      -6.1324      2.00000
      8      -5.7546      2.00000
      9      -4.7511      2.00000
     10      -4.5143      2.00000
     11      -3.4578      2.00000
     12      -3.3144      2.00000
     13      -3.1921      2.00000
     14      -2.9375      2.00000
     15      -2.9054      2.00000
     16      -2.8775      2.00000
     17      -2.4356      2.00000
     18      -0.1524      0.00000
     19       1.2595      0.00000
     20       2.4199      0.00000
     21       4.5611      0.00000
     22       4.8979      0.00000

 k-point     4 :      -0.2500    0.0000    0.0000
  band No.  band energies     occupation 
      1     -17.3620      2.00000
      2     -17.2548      2.00000
      3      -7.7389      2.00000
      4      -7.0461      2.00000
      5      -6.7245      2.00000
      6      -6.6271      2.00000
      7      -6.2704      2.00000
      8      -5.4548      2.00000
      9      -5.1441      2.00000
     10      -4.6703      2.00000
     11      -4.4654      2.00000
     12      -3.0892      2.00000
     13      -2.8876      2.00000
     14      -2.8563      2.00000
     15      -2.2450      2.00000
     16      -2.1946      2.00000
     17      -1.9362      2.00000
     18      -0.1368      0.00000
     19       0.3284      0.00000
     20       3.6655      0.00000
     21       4.0421      0.00000
     22       4.5609      0.00000

 k-point     5 :      -0.0000    0.2500    0.0000
  band No.  band energies     occupation 
      1     -17.3551      2.00000
      2     -17.2466      2.00000
      3      -7.7206      2.00000
      4      -7.0438      2.00000
      5      -6.7364      2.00000
      6      -6.6194      2.00000
      7      -6.2649      2.00000
      8      -5.5041      2.00000
      9      -5.1466      2.00000
     10      -4.7201      2.00000
     11      -4.4211      2.00000
     12      -3.0777      2.00000
     13      -2.8936      2.00000
     14      -2.8596      2.00000
     15      -2.2305      2.00000
     16      -2.1960      2.00000
     17      -1.9257      2.00000
     18      -0.1584      0.00000
     19       0.3605      0.00000
     20       3.6913      0.00000
     21       4.0529      0.00000
     22       4.5762      0.00000

 k-point     6 :       0.2500    0.2500    0.0000
  band No.  band energies     occupation 
      1     -17.1310      2.00000
      2     -16.9590      2.00000
      3      -7.5343      2.00000
      4      -7.0827      2.00000
      5      -6.9883      2.00000
      6      -6.3073      2.00000
      7      -6.1913      2.00000
      8      -5.8614      2.00000
      9      -5.3659      2.00000
     10      -5.1262      2.00000
     11      -3.7905      2.00000
     12      -3.3960      2.00000
     13      -3.1364      2.00000
     14      -2.9415      2.00000
     15      -2.8730      2.00000
     16      -2.2921      2.00000
     17      -1.9736      2.00000
     18      -0.2097      0.00000
     19       1.3772      0.00000
     20       3.1342      0.00000
     21       4.6333      0.00000
     22       5.5829      0.00000

 k-point     7 :       0.5000    0.2500    0.0000
  band No.  band energies     occupation 
      1     -17.1379      2.00000
      2     -16.9687      2.00000
      3      -7.5101      2.00000
      4      -7.0574      2.00000
      5      -7.0060      2.00000
      6      -6.2974      2.00000
      7      -6.1814      2.00000
      8      -5.8732      2.00000
      9      -5.3764      2.00000
     10      -5.1341      2.00000
     11      -3.8043      2.00000
     12      -3.3774      2.00000
     13      -3.1831      2.00000
     14      -2.9531      2.00000
     15      -2.8881      2.00000
     16      -2.2741      2.00000
     17      -1.9721      2.00000
     18      -0.1996      0.00000
     19       1.3393      0.00000
     20       3.1514      0.00000
     21       4.6599      0.00000
     22       5.6066      0.00000

 k-point     8 :      -0.2500    0.2500    0.0000
  band No.  band energies     occupation 
      1     -17.3619      2.00000
      2     -17.2547      2.00000
      3      -7.7386      2.00000
      4      -7.0461      2.00000
      5      -6.7247      2.00000
      6      -6.6270      2.00000
      7      -6.2704      2.00000
      8      -5.4554      2.00000
      9      -5.1442      2.00000
     10      -4.6709      2.00000
     11      -4.4648      2.00000
     12      -3.0890      2.00000
     13      -2.8878      2.00000
     14      -2.8562      2.00000
     15      -2.2448      2.00000
     16      -2.1946      2.00000
     17      -1.9361      2.00000
     18      -0.1372      0.00000
     19       0.3288      0.00000
     20       3.6659      0.00000
     21       4.0423      0.00000
     22       4.5611      0.00000

 k-point     9 :      -0.0000    0.5000    0.0000
  band No.  band energies     occupation 
      1     -17.1216      2.00000
      2     -16.9468      2.00000
      3      -7.8368      2.00000
      4      -7.5546      2.00000
      5      -6.5699      2.00000
      6      -6.5505      2.00000
      7      -6.1314      2.00000
      8      -5.8188      2.00000
      9      -4.7193      2.00000
     10      -4.5105      2.00000
     11      -3.4820      2.00000
     12      -3.2874      2.00000
     13      -3.2183      2.00000
     14      -2.9255      2.00000
     15      -2.8780      2.00000
     16      -2.8370      2.00000
     17      -2.4283      2.00000
     18      -0.1741      0.00000
     19       1.3352      0.00000
     20       2.3879      0.00000
     21       4.5534      0.00000
     22       4.8345      0.00000

 k-point    10 :       0.2500    0.5000    0.0000
  band No.  band energies     occupation 
      1     -17.1309      2.00000
      2     -16.9588      2.00000
      3      -7.5346      2.00000
      4      -7.0831      2.00000
      5      -6.9880      2.00000
      6      -6.3075      2.00000
      7      -6.1915      2.00000
      8      -5.8613      2.00000
      9      -5.3658      2.00000
     10      -5.1262      2.00000
     11      -3.7904      2.00000
     12      -3.3962      2.00000
     13      -3.1357      2.00000
     14      -2.9416      2.00000
     15      -2.8726      2.00000
     16      -2.2924      2.00000
     17      -1.9736      2.00000
     18      -0.2098      0.00000
     19       1.3777      0.00000
     20       3.1339      0.00000
     21       4.6329      0.00000
     22       5.5826      0.00000

 k-point    11 :       0.5000    0.5000    0.0000
  band No.  band energies     occupation 
      1     -17.1346      2.00000
      2     -16.9656      2.00000
      3      -7.8524      2.00000
      4      -7.5580      2.00000
      5      -6.5502      2.00000
      6      -6.5351      2.00000
      7      -6.1324      2.00000
      8      -5.7555      2.00000
      9      -4.7507      2.00000
     10      -4.5143      2.00000
     11      -3.4582      2.00000
     12      -3.3141      2.00000
     13      -3.1925      2.00000
     14      -2.9371      2.00000
     15      -2.9052      2.00000
     16      -2.8769      2.00000
     17      -2.4355      2.00000
     18      -0.1527      0.00000
     19       1.2605      0.00000
     20       2.4195      0.00000
     21       4.5610      0.00000
     22       4.8970      0.00000

 k-point    12 :      -0.2500    0.5000    0.0000
  band No.  band energies     occupation 
      1     -17.1309      2.00000
      2     -16.9588      2.00000
      3      -7.5346      2.00000
      4      -7.0831      2.00000
      5      -6.9880      2.00000
      6      -6.3075      2.00000
      7      -6.1915      2.00000
      8      -5.8613      2.00000
      9      -5.3658      2.00000
     10      -5.1262      2.00000
     11      -3.7904      2.00000
     12      -3.3962      2.00000
     13      -3.1357      2.00000
     14      -2.9416      2.00000
     15      -2.8726      2.00000
     16      -2.2924      2.00000
     17      -1.9736      2.00000
     18      -0.2098      0.00000
     19       1.3777      0.00000
     20       3.1339      0.00000
     21       4.6329      0.00000
     22       5.5826      0.00000

 k-point    13 :       0.0000   -0.2500    0.0000
  band No.  band energies     occupation 
      1     -17.3551      2.00000
      2     -17.2466      2.00000
      3      -7.7206      2.00000
      4      -7.0438      2.00000
      5      -6.7364      2.00000
      6      -6.6194      2.00000
      7      -6.2649      2.00000
      8      -5.5041      2.00000
      9      -5.1466      2.00000
     10      -4.7201      2.00000
     11      -4.4211      2.00000
     12      -3.0777      2.00000
     13      -2.8936      2.00000
     14      -2.8596      2.00000
     15      -2.2305      2.00000
     16      -2.1960      2.00000
     17      -1.9257      2.00000
     18      -0.1584      0.00000
     19       0.3605      0.00000
     20       3.6913      0.00000
     21       4.0529      0.00000
     22       4.5762      0.00000

 k-point    14 :       0.2500   -0.2500    0.0000
  band No.  band energies     occupation 
      1     -17.3619      2.00000
      2     -17.2547      2.00000
      3      -7.7386      2.00000
      4      -7.0461      2.00000
      5      -6.7247      2.00000
      6      -6.6270      2.00000
      7      -6.2704      2.00000
      8      -5.4554      2.00000
      9      -5.1442      2.00000
     10      -4.6709      2.00000
     11      -4.4648      2.00000
     12      -3.0890      2.00000
     13      -2.8878      2.00000
     14      -2.8562      2.00000
     15      -2.2448      2.00000
     16      -2.1946      2.00000
     17      -1.9361      2.00000
     18      -0.1372      0.00000
     19       0.3288      0.00000
     20       3.6659      0.00000
     21       4.0423      0.00000
     22       4.5611      0.00000

 k-point    15 :       0.5000   -0.2500    0.0000
  band No.  band energies     occupation 
      1     -17.1379      2.00000
      2     -16.9687      2.00000
      3      -7.5101      2.00000
      4      -7.0574      2.00000
      5      -7.0060      2.00000
      6      -6.2974      2.00000
      7      -6.1814      2.00000
      8      -5.8732      2.00000
      9      -5.3764      2.00000
     10      -5.1341      2.00000
     11      -3.8043      2.00000
     12      -3.3774      2.00000
     13      -3.1831      2.00000
     14      -2.9531      2.00000
     15      -2.8881      2.00000
     16      -2.2741      2.00000
     17      -1.9721      2.00000
     18      -0.1996      0.00000
     19       1.3393      0.00000
     20       3.1514      0.00000
     21       4.6599      0.00000
     22       5.6066      0.00000

 k-point    16 :      -0.2500   -0.2500    0.0000
  band No.  band energies     occupation 
      1     -17.1310      2.00000
      2     -16.9590      2.00000
      3      -7.5343      2.00000
      4      -7.0827      2.00000
      5      -6.9883      2.00000
      6      -6.3073      2.00000
      7      -6.1913      2.00000
      8      -5.8614      2.00000
      9      -5.3659      2.00000
     10      -5.1262      2.00000
     11      -3.7905      2.00000
     12      -3.3960      2.00000
     13      -3.1364      2.00000
     14      -2.9415      2.00000
     15      -2.8730      2.00000
     16      -2.2921      2.00000
     17      -1.9736      2.00000
     18      -0.2097      0.00000
     19       1.3772      0.00000
     20       3.1342      0.00000
     21       4.6333      0.00000
     22       5.5829      0.00000


--------------------------------------------------------------------------------------------------------


 soft charge-density along one line, spin component           1
         0         1         2         3         4         5         6         7         8         9
 total charge-density along one line
 
 pseudopotential strength for first ion, spin component:           1
 49.266  51.704  -0.000   0.038  -0.000  -0.001   0.047  -0.000
 51.704  54.267  -0.000   0.040  -0.000  -0.001   0.050  -0.000
 -0.000  -0.000   9.298  -0.000  -0.000  11.525  -0.000  -0.000
  0.038   0.040  -0.000   9.296  -0.000  -0.000  11.524  -0.000
 -0.000  -0.000  -0.000  -0.000   9.298  -0.000  -0.000  11.525
 -0.001  -0.001  11.525  -0.000  -0.000  14.301  -0.000  -0.000
  0.047   0.050  -0.000  11.524  -0.000  -0.000  14.300  -0.000
 -0.000  -0.000  -0.000  -0.000  11.525  -0.000  -0.000  14.302
 total augmentation occupancy for first ion, spin component:           1
  8.390  -6.370   0.047  -3.037   0.001  -0.019   1.267  -0.000
 -6.370   6.302  -0.046   2.848  -0.001   0.020  -1.255   0.000
  0.047  -0.046   3.564  -0.017   0.000  -1.048   0.010  -0.000
 -3.037   2.848  -0.017   3.360  -0.000   0.010  -0.922   0.000
  0.001  -0.001   0.000  -0.000   3.557  -0.000   0.000  -1.045
 -0.019   0.020  -1.048   0.010  -0.000   0.476  -0.004   0.000
  1.267  -1.255   0.010  -0.922   0.000  -0.004   0.426  -0.000
 -0.000   0.000  -0.000   0.000  -1.045   0.000  -0.000   0.472


------------------------ aborting loop because EDIFF is reached ----------------------------------------


    CHARGE:  cpu time    0.0700: real time    0.0700
    FORLOC:  cpu time    0.0149: real time    0.0149
    FORNL :  cpu time    0.0872: real time    0.0872
    STRESS:  cpu time    0.4875: real time    0.4875
    FORCOR:  cpu time    0.1936: real time    0.1936
    FORHAR:  cpu time    0.0380: real time    0.0380
    MIXING:  cpu time    0.0063: real time    0.0063
    OFIELD:  cpu time    0.0000: real time    0.0000

 ---------------------------------------------------------------------------------------------

         DFTD3 V3.0 Rev 1        
 Edisp (eV)   -1.24238

 E6    (eV) :    -0.3602
 E8    (eV) :    -0.8822
 % E8        : 71.01
    FORVDW:  cpu time    0.0170: real time    0.0170

  FORCE on cell =-STRESS in cart. coord.  units (eV):
  Direction    XX          YY          ZZ          XY          YZ          ZX
  --------------------------------------------------------------------------------------
  Alpha Z    42.73565    42.73565    42.73565
  Ewald    7522.73057  7524.85686 -9043.07195     0.00850    -5.60455    -0.12012
  Hartree  8001.63205  8002.74231 -7819.74184     0.00447    -2.00063    -0.04288
  E(xc)    -141.10851  -141.13511  -141.55327    -0.00015    -0.00886    -0.00020
  Local  -16152.07131-16155.85372 16228.89166    -0.01582     7.23564     0.15494
  n-local   142.16935   142.57230   143.73227     0.00206    -0.14871    -0.00314
  augment    78.75841    78.86961    79.62084     0.00033     0.04054     0.00088
  Kinetic   505.90712   506.70559   509.55483     0.00336     0.26482     0.00554
  Fock        0.00000     0.00000     0.00000     0.00000     0.00000     0.00000
  vdW        -0.77813    -0.74257    -0.24910     0.00016     0.00715     0.00015
  -------------------------------------------------------------------------------------
  Total      -0.02480     0.75092    -0.08090     0.00291    -0.21460    -0.00483
  in kB      -0.17495     5.29709    -0.57068     0.02055    -1.51381    -0.03409
  external pressure =        1.52 kB  Pullay stress =        0.00 kB


 VOLUME and BASIS-vectors are now :
 -----------------------------------------------------------------------------
  energy-cutoff  :      300.00
  volume of cell :      227.13
      direct lattice vectors                 reciprocal lattice vectors
     3.641810600 -0.036443352  0.000000000     0.276165380  0.157559855  0.000000000
    -1.789302084  3.136225858  0.000000000     0.003209078  0.320685453  0.000000000
     0.000000000  0.000000000 20.000000000     0.000000000  0.000000000  0.050000000

  length of vectors
     3.641992939  3.610749864 20.000000000     0.317950350  0.320701509  0.050000000


 FORCES acting on ions
    electron-ion (+dipol)            ewald-force                    non-local-force                 convergence-correction
 -----------------------------------------------------------------------------------------------
   -.288E-01 -.136E+01 0.100E+04   0.313E-01 0.147E+01 -.101E+04   -.119E-02 -.522E-01 0.561E+01   -.636E-03 -.237E-01 0.258E-01
   0.212E-01 0.986E+00 -.101E+04   -.225E-01 -.104E+01 0.101E+04   0.543E-04 -.960E-03 -.271E+01   0.370E-03 0.133E-01 0.450E-01
   0.786E-02 0.379E+00 -.573E+03   -.679E-02 -.328E+00 0.566E+03   -.112E-02 -.551E-01 0.662E+01   -.818E-04 -.382E-02 0.236E+00
   0.155E-02 0.728E-01 0.578E+03   -.209E-02 -.968E-01 -.571E+03   0.574E-03 0.286E-01 -.650E+01   0.206E-03 0.866E-02 0.242E+00
 -----------------------------------------------------------------------------------------------
   0.182E-02 0.826E-01 -.357E+01   -.136E-13 -.426E-14 0.000E+00   -.169E-02 -.798E-01 0.302E+01   -.142E-03 -.555E-02 0.549E+00
 
 
 POSITION                                       TOTAL-FORCE (eV/Angst)
 -----------------------------------------------------------------------------------
     -0.89435      1.57339      3.36099         0.000726      0.034041     -0.035940
     -0.89460      1.56135      7.72119        -0.000841     -0.040438      0.027425
      0.91587      0.50864      6.21060        -0.000108     -0.006777      0.028600
      0.93704      2.59214      4.71189         0.000222      0.013173     -0.020086
 -----------------------------------------------------------------------------------
    total drift:                               -0.000010     -0.002656      0.002399


--------------------------------------------------------------------------------------------------------



  FREE ENERGIE OF THE ION-ELECTRON SYSTEM (eV)
  ---------------------------------------------------
  free  energy   TOTEN  =       -17.79396373 eV

  energy  without entropy=      -17.79396373  energy(sigma->0) =      -17.79396373
 
 d Force = 0.1606918E-03[ 0.145E-03, 0.177E-03]  d Energy = 0.1223857E-03 0.383E-04
 d Force = 0.1509553E+01[ 0.151E+01, 0.151E+01]  d Ewald  =-0.4327218E+01 0.584E+01


--------------------------------------------------------------------------------------------------------


    POTLOK:  cpu time    0.1998: real time    0.1999


--------------------------------------------------------------------------------------------------------


 Quasi-Newton relaxation of ions (Broydens 2nd method)
  g(Force)  = 0.303E-03   g(Stress)= 0.742E-05

 retain information from N=  2 steps
 eigenvalues of (default step * inverse Hessian matrix)
  average eigenvalue of G=   4.9626
 eigenvalue spectrum of G is  4.9626  4.9626


--------------------------------------------------------------------------------------------------------


  
 reached required accuracy - stopping structural energy minimisation
 writing wavefunctions
     LOOP+:  cpu time    3.8700: real time    3.8707
    4ORBIT:  cpu time    0.0000: real time    0.0000

 total amount of memory used by VASP MPI-rank0    81829. kBytes
=======================================================================

   base      :      30000. kBytes
   nonl-proj :      18835. kBytes
   fftplans  :       8017. kBytes
   grid      :      17149. kBytes
   one-center:         62. kBytes
   wavefun   :       7766. kBytes
 
  
  
 General timing and accounting informations for this job:
 ========================================================
  
                  Total CPU time used (sec):       28.948
                            User time (sec):       28.368
                          System time (sec):        0.580
                         Elapsed time (sec):       29.211
  
                   Maximum memory used (kb):      191732.
                   Average memory used (kb):           0.
  
                          Minor page faults:        28864
                          Major page faults:            0
                 Voluntary context switches:           55
