 running on    8 total cores
 distrk:  each k-point on    2 cores,    4 groups
 distr:  one band on    1 cores,    2 groups
 using from now: INCAR     
 vasp.5.4.4.16052018 (build Dec 07 2020 11:33:42) complex                       
  
 POSCAR found type information on POSCAR  Cl Br Pt
 POSCAR found :  3 types and       4 ions
 scaLAPACK will be used

 ----------------------------------------------------------------------------- 
|                                                                             |
|           W    W    AA    RRRRR   N    N  II  N    N   GGGG   !!!           |
|           W    W   A  A   R    R  NN   N  II  NN   N  G    G  !!!           |
|           W    W  A    A  R    R  N N  N  II  N N  N  G       !!!           |
|           W WW W  AAAAAA  RRRRR   N  N N  II  N  N N  G  GGG   !            |
|           WW  WW  A    A  R   R   N   NN  II  N   NN  G    G                |
|           W    W  A    A  R    R  N    N  II  N    N   GGGG   !!!           |
|                                                                             |
|      For optimal performance we recommend to set                            |
|        NCORE= 4 - approx SQRT( number of cores)                             |
|      NCORE specifies how many cores store one orbital (NPAR=cpu/NCORE).     |
|      This setting can  greatly improve the performance of VASP for DFT.     |
|      The default,   NCORE=1            might be grossly inefficient         |
|      on modern multi-core architectures or massively parallel machines.     |
|      Do your own testing !!!!                                               |
|      Unfortunately you need to use the default for GW and RPA calculations. |
|      (for HF NCORE is supported but not extensively tested yet)             |
|                                                                             |
 ----------------------------------------------------------------------------- 


 ----------------------------------------------------------------------------- 
|                                                                             |
|           W    W    AA    RRRRR   N    N  II  N    N   GGGG   !!!           |
|           W    W   A  A   R    R  NN   N  II  NN   N  G    G  !!!           |
|           W    W  A    A  R    R  N N  N  II  N N  N  G       !!!           |
|           W WW W  AAAAAA  RRRRR   N  N N  II  N  N N  G  GGG   !            |
|           WW  WW  A    A  R   R   N   NN  II  N   NN  G    G                |
|           W    W  A    A  R    R  N    N  II  N    N   GGGG   !!!           |
|                                                                             |
|      You have enabled k-point parallelism (KPAR>1).                         |
|      This developmental code was originally  written by Paul Kent at ORNL,  |
|      and carefully double checked in Vienna.                                |
|      GW as well as linear response parallelism added by Martijn Marsman     |
|      and Georg Kresse.                                                      |
|      Carefully verify results versus KPAR=1.                                |
|      Report problems to Paul Kent and Vienna.                               |
|                                                                             |
 ----------------------------------------------------------------------------- 

 LDA part: xc-table for Pade appr. of Perdew
 POSCAR, INCAR and KPOINTS ok, starting setup
 FFT: planning ...
 WAVECAR not read
 entering main loop
       N       E                     dE             d eps       ncg     rms          rms(c)
DAV:   1     0.222773542252E+03    0.22277E+03   -0.10141E+04   712   0.797E+02
DAV:   2     0.265307373538E+01   -0.22012E+03   -0.21039E+03  1058   0.205E+02
DAV:   3    -0.169662002581E+02   -0.19619E+02   -0.19003E+02   854   0.694E+01
DAV:   4    -0.174013746119E+02   -0.43517E+00   -0.43434E+00   880   0.116E+01
DAV:   5    -0.174119190067E+02   -0.10544E-01   -0.10540E-01   868   0.171E+00    0.166E+01
DAV:   6    -0.165739480159E+02    0.83797E+00   -0.22075E+00   866   0.131E+01    0.935E+00
DAV:   7    -0.165819877733E+02   -0.80398E-02   -0.59278E-01   812   0.780E+00    0.313E+00
DAV:   8    -0.166289344483E+02   -0.46947E-01   -0.45788E-01   848   0.963E+00    0.249E+00
DAV:   9    -0.165224692835E+02    0.10647E+00   -0.15257E-01   800   0.553E+00    0.425E-01
DAV:  10    -0.165218028179E+02    0.66647E-03   -0.26019E-02   758   0.993E-01    0.133E-01
DAV:  11    -0.165217612795E+02    0.41538E-04   -0.19093E-03   854   0.366E-01    0.850E-02
DAV:  12    -0.165217920543E+02   -0.30775E-04   -0.16875E-04   796   0.909E-02
   1 F= -.17773295E+02 E0= -.17773295E+02  d E =-.177733E+02
stress tensor set to zero in row and column 2
stress tensor set to zero in row and column 3
 BRION: g(F)=  0.656E-02 g(S)=  0.454E-02
 bond charge predicted
       N       E                     dE             d eps       ncg     rms          rms(c)
DAV:   1    -0.165491748061E+02   -0.27414E-01   -0.15604E+00   704   0.754E+00    0.923E-01
DAV:   2    -0.165374643161E+02    0.11710E-01   -0.65342E-02   854   0.191E+00    0.425E-01
DAV:   3    -0.165352933092E+02    0.21710E-02   -0.45817E-03   848   0.673E-01    0.276E-01
DAV:   4    -0.165353727450E+02   -0.79436E-04   -0.47824E-03   812   0.951E-01    0.269E-01
DAV:   5    -0.165344235271E+02    0.94922E-03   -0.18942E-03   794   0.546E-01    0.896E-02
DAV:   6    -0.165344379366E+02   -0.14409E-04   -0.38374E-04   854   0.129E-01
   2 F= -.17778998E+02 E0= -.17778998E+02  d E =-.570313E-02
stress tensor set to zero in row and column 2
stress tensor set to zero in row and column 3
 BRION: g(F)=  0.311E-02 g(S)=  0.134E-02 retain N=  1 mean eig= 0.65
 eig:   0.646
 bond charge predicted
       N       E                     dE             d eps       ncg     rms          rms(c)
DAV:   1    -0.165362888239E+02   -0.18653E-02   -0.24035E-01   704   0.293E+00    0.329E-01
DAV:   2    -0.165348707684E+02    0.14181E-02   -0.11277E-02   854   0.776E-01    0.134E-01
DAV:   3    -0.165346641343E+02    0.20663E-03   -0.90467E-04   812   0.365E-01    0.112E-01
DAV:   4    -0.165345163635E+02    0.14777E-03   -0.54353E-04   818   0.331E-01    0.694E-02
DAV:   5    -0.165344686484E+02    0.47715E-04   -0.23066E-04   824   0.130E-01
   3 F= -.17781037E+02 E0= -.17781037E+02  d E =-.203937E-02
stress tensor set to zero in row and column 2
stress tensor set to zero in row and column 3
 BRION: g(F)=  0.172E-02 g(S)=  0.168E-05 retain N=  1 mean eig= 0.65
 eig:   0.649
 bond charge predicted
       N       E                     dE             d eps       ncg     rms          rms(c)
DAV:   1    -0.165359646516E+02   -0.14483E-02   -0.15502E-01   704   0.208E+00    0.175E-01
DAV:   2    -0.165364618983E+02   -0.49725E-03   -0.54886E-03   800   0.420E-01    0.644E-02
DAV:   3    -0.165364520784E+02    0.98199E-05   -0.68949E-05   624   0.639E-02
   4 F= -.17782476E+02 E0= -.17782476E+02  d E =-.143920E-02
stress tensor set to zero in row and column 2
stress tensor set to zero in row and column 3
 BRION: g(F)=  0.837E-03 g(S)=  0.525E-06 retain N=  2 mean eig= 1.40
 eig:   0.717  2.085
 bond charge predicted
       N       E                     dE             d eps       ncg     rms          rms(c)
DAV:   1    -0.165370089243E+02   -0.54703E-03   -0.52429E-01   704   0.377E+00    0.337E-01
DAV:   2    -0.165387965158E+02   -0.17876E-02   -0.19786E-02   836   0.792E-01    0.116E-01
DAV:   3    -0.165387761121E+02    0.20404E-04   -0.34289E-04   830   0.199E-01
   5 F= -.17784037E+02 E0= -.17784037E+02  d E =-.156029E-02
stress tensor set to zero in row and column 2
stress tensor set to zero in row and column 3
 BRION: g(F)=  0.193E-03 g(S)=  0.472E-05 retain N=  1 mean eig= 3.36
 eig:   3.365
 bond charge predicted
       N       E                     dE             d eps       ncg     rms          rms(c)
DAV:   1    -0.165387696383E+02    0.26877E-04   -0.38525E-02   746   0.103E+00    0.845E-02
DAV:   2    -0.165388398623E+02   -0.70224E-04   -0.85046E-04   842   0.283E-01    0.699E-02
DAV:   3    -0.165387947489E+02    0.45113E-04   -0.19036E-04   684   0.202E-01
   6 F= -.17784117E+02 E0= -.17784117E+02  d E =-.800041E-04
stress tensor set to zero in row and column 2
stress tensor set to zero in row and column 3
 BRION: g(F)=  0.126E-03 g(S)=  0.577E-04 retain N=  2 mean eig= 2.12
 eig:   3.698  0.539
 reached required accuracy - stopping structural energy minimisation
 writing wavefunctions
