 vasp.5.4.4.16052018 (build Dec 07 2020 11:33:42) complex                       
  
 executed on             LinuxIFC date 2020.12.13  00:52:08
 running on    8 total cores
 distrk:  each k-point on    2 cores,    4 groups
 distr:  one band on NCORES_PER_BAND=   1 cores,    2 groups


--------------------------------------------------------------------------------------------------------


 INCAR:
 POTCAR:    PAW_PBE Cl 06Sep2000                  
 POTCAR:    PAW_PBE Br 06Sep2000                  
 POTCAR:    PAW_PBE Pt 04Feb2005                  

 ----------------------------------------------------------------------------- 
|                                                                             |
|           W    W    AA    RRRRR   N    N  II  N    N   GGGG   !!!           |
|           W    W   A  A   R    R  NN   N  II  NN   N  G    G  !!!           |
|           W    W  A    A  R    R  N N  N  II  N N  N  G       !!!           |
|           W WW W  AAAAAA  RRRRR   N  N N  II  N  N N  G  GGG   !            |
|           WW  WW  A    A  R   R   N   NN  II  N   NN  G    G                |
|           W    W  A    A  R    R  N    N  II  N    N   GGGG   !!!           |
|                                                                             |
|      For optimal performance we recommend to set                            |
|        NCORE= 4 - approx SQRT( number of cores)                             |
|      NCORE specifies how many cores store one orbital (NPAR=cpu/NCORE).     |
|      This setting can  greatly improve the performance of VASP for DFT.     |
|      The default,   NCORE=1            might be grossly inefficient         |
|      on modern multi-core architectures or massively parallel machines.     |
|      Do your own testing !!!!                                               |
|      Unfortunately you need to use the default for GW and RPA calculations. |
|      (for HF NCORE is supported but not extensively tested yet)             |
|                                                                             |
 ----------------------------------------------------------------------------- 


 ----------------------------------------------------------------------------- 
|                                                                             |
|           W    W    AA    RRRRR   N    N  II  N    N   GGGG   !!!           |
|           W    W   A  A   R    R  NN   N  II  NN   N  G    G  !!!           |
|           W    W  A    A  R    R  N N  N  II  N N  N  G       !!!           |
|           W WW W  AAAAAA  RRRRR   N  N N  II  N  N N  G  GGG   !            |
|           WW  WW  A    A  R   R   N   NN  II  N   NN  G    G                |
|           W    W  A    A  R    R  N    N  II  N    N   GGGG   !!!           |
|                                                                             |
|      You have enabled k-point parallelism (KPAR>1).                         |
|      This developmental code was originally  written by Paul Kent at ORNL,  |
|      and carefully double checked in Vienna.                                |
|      GW as well as linear response parallelism added by Martijn Marsman     |
|      and Georg Kresse.                                                      |
|      Carefully verify results versus KPAR=1.                                |
|      Report problems to Paul Kent and Vienna.                               |
|                                                                             |
 ----------------------------------------------------------------------------- 

 POTCAR:    PAW_PBE Cl 06Sep2000                  
   VRHFIN =Cl: s2p5                                                             
   LEXCH  = PE                                                                  
   EATOM  =   409.7259 eV,   30.1140 Ry                                         
                                                                                
   TITEL  = PAW_PBE Cl 06Sep2000                                                
   LULTRA =        F    use ultrasoft PP ?                                      
   IUNSCR =        1    unscreen: 0-lin 1-nonlin 2-no                           
   RPACOR =    1.500    partial core radius                                     
   POMASS =   35.453; ZVAL   =    7.000    mass and valenz                      
   RCORE  =    1.900    outmost cutoff radius                                   
   RWIGS  =    2.100; RWIGS  =    1.111    wigner-seitz radius (au A)           
   ENMAX  =  262.472; ENMIN  =  196.854 eV                                      
   ICORE  =        2    local potential                                         
   LCOR   =        T    correct aug charges                                     
   LPAW   =        T    paw PP                                                  
   EAUG   =  356.192                                                            
   DEXC   =    0.000                                                            
   RMAX   =    1.945    core radius for proj-oper                               
   RAUG   =    1.300    factor for augmentation sphere                          
   RDEP   =    2.020    radius for radial grids                                 
   RDEPT  =    1.678    core radius for aug-charge                              
                                                                                
   Atomic configuration                                                         
    6 entries                                                                   
     n  l   j            E        occ.                                          
     1  0  0.50     -2751.1850   2.0000                                         
     2  0  0.50      -252.6861   2.0000                                         
     2  1  1.50      -191.6157   6.0000                                         
     3  0  0.50       -20.6916   2.0000                                         
     3  1  0.50        -8.5949   5.0000                                         
     3  2  1.50        -8.1635   0.0000                                         
   Description                                                                  
     l       E           TYP  RCUT    TYP  RCUT                                 
     0    -20.6915656     23  1.900                                             
     0    -22.0521482     23  1.900                                             
     1     -8.5948577     23  1.900                                             
     1     -5.3847331     23  1.900                                             
     2     -8.1634956     23  1.900                                             
  local pseudopotential read in
  partial core-charges read in
  partial kinetic energy density read in
  atomic valenz-charges read in
  non local Contribution for L=           0  read in
    real space projection operators read in
  non local Contribution for L=           0  read in
    real space projection operators read in
  non local Contribution for L=           1  read in
    real space projection operators read in
  non local Contribution for L=           1  read in
    real space projection operators read in
    PAW grid and wavefunctions read in
 
   number of l-projection  operators is LMAX  =           4
   number of lm-projection operators is LMMAX =           8
 
 POTCAR:    PAW_PBE Br 06Sep2000                  
   VRHFIN =Br: s2p5                                                             
   LEXCH  = PE                                                                  
   EATOM  =   368.4488 eV,   27.0802 Ry                                         
                                                                                
   TITEL  = PAW_PBE Br 06Sep2000                                                
   LULTRA =        F    use ultrasoft PP ?                                      
   IUNSCR =        1    unscreen: 0-lin 1-nonlin 2-no                           
   RPACOR =    1.900    partial core radius                                     
   POMASS =   79.904; ZVAL   =    7.000    mass and valenz                      
   RCORE  =    2.100    outmost cutoff radius                                   
   RWIGS  =    2.200; RWIGS  =    1.164    wigner-seitz radius (au A)           
   ENMAX  =  216.285; ENMIN  =  162.214 eV                                      
   ICORE  =        3    local potential                                         
   LCOR   =        T    correct aug charges                                     
   LPAW   =        T    paw PP                                                  
   EAUG   =  503.852                                                            
   DEXC   =    0.000                                                            
   RMAX   =    2.139    core radius for proj-oper                               
   RAUG   =    1.300    factor for augmentation sphere                          
   RDEP   =    2.186    radius for radial grids                                 
   RDEPT  =    1.890    core radius for aug-charge                              
                                                                                
   Atomic configuration                                                         
   10 entries                                                                   
     n  l   j            E        occ.                                          
     1  0  0.50    -13316.2796   2.0000                                         
     2  0  0.50     -1732.8239   2.0000                                         
     2  1  1.50     -1528.2193   6.0000                                         
     3  0  0.50      -238.0460   2.0000                                         
     3  1  1.50      -173.4609   6.0000                                         
     3  2  2.50       -66.7132  10.0000                                         
     4  0  0.50       -20.1334   2.0000                                         
     4  1  0.50        -7.8591   5.0000                                         
     4  2  2.50        -8.1635   0.0000                                         
     4  3  2.50        -8.1635   0.0000                                         
   Description                                                                  
     l       E           TYP  RCUT    TYP  RCUT                                 
     0    -20.1333652     23  2.100                                             
     0    -21.4939478     23  2.100                                             
     1     -7.8591052     23  2.100                                             
     1     -3.1608434     23  2.100                                             
     2     -8.1634956     23  2.100                                             
     3     -1.3605826      7  2.100                                             
  local pseudopotential read in
  partial core-charges read in
  partial kinetic energy density read in
  atomic valenz-charges read in
  non local Contribution for L=           0  read in
    real space projection operators read in
  non local Contribution for L=           0  read in
    real space projection operators read in
  non local Contribution for L=           1  read in
    real space projection operators read in
  non local Contribution for L=           1  read in
    real space projection operators read in
  non local Contribution for L=           2  read in
    real space projection operators read in
    PAW grid and wavefunctions read in
 
   number of l-projection  operators is LMAX  =           5
   number of lm-projection operators is LMMAX =          13
 
 POTCAR:    PAW_PBE Pt 04Feb2005                  
   VRHFIN =Pt: s1d9                                                             
   LEXCH  = PE                                                                  
   EATOM  =   729.1176 eV,   53.5886 Ry                                         
                                                                                
   TITEL  = PAW_PBE Pt 04Feb2005                                                
   LULTRA =        F    use ultrasoft PP ?                                      
   IUNSCR =        1    unscreen: 0-lin 1-nonlin 2-no                           
   RPACOR =    2.330    partial core radius                                     
   POMASS =  195.080; ZVAL   =   10.000    mass and valenz                      
   RCORE  =    2.600    outmost cutoff radius                                   
   RWIGS  =    2.750; RWIGS  =    1.455    wigner-seitz radius (au A)           
   ENMAX  =  230.283; ENMIN  =  172.712 eV                                      
   ICORE  =        3    local potential                                         
   LCOR   =        T    correct aug charges                                     
   LPAW   =        T    paw PP                                                  
   EAUG   =  358.966                                                            
   DEXC   =    0.000                                                            
   RMAX   =    2.658    core radius for proj-oper                               
   RAUG   =    1.300    factor for augmentation sphere                          
   RDEP   =    2.761    radius for radial grids                                 
   RDEPT  =    2.203    core radius for aug-charge                              
                                                                                
   Atomic configuration                                                         
   16 entries                                                                   
     n  l   j            E        occ.                                          
     1  0  0.50    -78401.1885   2.0000                                         
     2  0  0.50    -13770.7750   2.0000                                         
     2  1  1.50    -11931.0468   6.0000                                         
     3  0  0.50     -3234.7234   2.0000                                         
     3  1  1.50     -2699.2216   6.0000                                         
     3  2  2.50     -2119.5714  10.0000                                         
     4  0  0.50      -695.1528   2.0000                                         
     4  1  1.50      -519.6034   6.0000                                         
     4  2  2.50      -306.6786  10.0000                                         
     4  3  3.50       -70.1041  14.0000                                         
     5  0  0.50      -101.7747   2.0000                                         
     5  1  1.50       -55.9873   6.0000                                         
     5  2  2.50        -6.1423   9.0000                                         
     6  0  0.50        -5.6573   1.0000                                         
     6  1  1.50        -6.8029   0.0000                                         
     5  3  2.50        -1.3606   0.0000                                         
   Description                                                                  
     l       E           TYP  RCUT    TYP  RCUT                                 
     2     -6.1423404     23  2.500                                             
     2     -7.5029230     23  2.500                                             
     0     -5.6573207     23  2.500                                             
     0      0.7416693     23  2.500                                             
     1     -2.7211652     23  2.600                                             
     1     20.4087390     23  2.600                                             
     3     -1.3605826     23  2.500                                             
  local pseudopotential read in
  partial core-charges read in
  partial kinetic energy density read in
  atomic valenz-charges read in
  non local Contribution for L=           2  read in
    real space projection operators read in
  non local Contribution for L=           2  read in
    real space projection operators read in
  non local Contribution for L=           0  read in
    real space projection operators read in
  non local Contribution for L=           0  read in
    real space projection operators read in
  non local Contribution for L=           1  read in
    real space projection operators read in
  non local Contribution for L=           1  read in
    real space projection operators read in
    PAW grid and wavefunctions read in
 
   number of l-projection  operators is LMAX  =           6
   number of lm-projection operators is LMMAX =          18
 
  PAW_PBE Cl 06Sep2000                  :
 energy of atom  1       EATOM= -409.7259
 kinetic energy error for atom=    0.0150 (will be added to EATOM!!)
  PAW_PBE Br 06Sep2000                  :
 energy of atom  2       EATOM= -368.4488
 kinetic energy error for atom=    0.0072 (will be added to EATOM!!)
  PAW_PBE Pt 04Feb2005                  :
 energy of atom  3       EATOM= -729.1176
 kinetic energy error for atom=    0.0416 (will be added to EATOM!!)
 
 
 POSCAR: ClBrPt2                                 
  positions in direct lattice
  velocities in cartesian coordinates
 exchange correlation table for  LEXCH =        8
   RHO(1)=    0.500       N(1)  =     2000
   RHO(2)=  100.500       N(2)  =     4000
 


--------------------------------------------------------------------------------------------------------


 ion  position               nearest neighbor table
   1  0.000  0.500  0.168-   4 2.46   4 2.49   4 2.49
   2  0.000  0.500  0.386-   3 2.55   3 2.57   3 2.58
   3  0.333  0.167  0.310-   4 2.54   2 2.55   4 2.57   4 2.57   2 2.57   2 2.58
   4  0.667  0.833  0.236-   1 2.46   1 2.49   1 2.49   3 2.54   3 2.57   3 2.57
 

IMPORTANT INFORMATION: All symmetrisations will be switched off!
NOSYMM: (Re-)initialisation of all symmetry stuff for point group C_1.

 
 
 KPOINTS: Automatic mesh                          

Automatic generation of k-mesh.
Space group operators:
 irot       det(A)        alpha          n_x          n_y          n_z        tau_x        tau_y        tau_z
    1     1.000000     0.000000     1.000000     0.000000     0.000000     0.000000     0.000000     0.000000
 
 Subroutine IBZKPT returns following result:
 ===========================================
 
 Found     16 irreducible k-points:
 
 Following reciprocal coordinates:
            Coordinates               Weight
  0.000000  0.000000  0.000000      1.000000
  0.250000  0.000000  0.000000      1.000000
  0.500000  0.000000  0.000000      1.000000
 -0.250000 -0.000000  0.000000      1.000000
  0.000000  0.250000  0.000000      1.000000
  0.250000  0.250000  0.000000      1.000000
  0.500000  0.250000  0.000000      1.000000
 -0.250000  0.250000  0.000000      1.000000
  0.000000  0.500000  0.000000      1.000000
  0.250000  0.500000  0.000000      1.000000
  0.500000  0.500000  0.000000      1.000000
 -0.250000  0.500000  0.000000      1.000000
 -0.000000 -0.250000  0.000000      1.000000
  0.250000 -0.250000  0.000000      1.000000
  0.500000 -0.250000  0.000000      1.000000
 -0.250000 -0.250000  0.000000      1.000000
 
 Following cartesian coordinates:
            Coordinates               Weight
  0.000000  0.000000  0.000000      1.000000
  0.069138  0.039794  0.000000      1.000000
  0.138276  0.079588  0.000000      1.000000
 -0.069138 -0.039794  0.000000      1.000000
  0.000812  0.080994  0.000000      1.000000
  0.069949  0.120788  0.000000      1.000000
  0.139087  0.160583  0.000000      1.000000
 -0.068326  0.041200  0.000000      1.000000
  0.001623  0.161988  0.000000      1.000000
  0.070761  0.201783  0.000000      1.000000
  0.139899  0.241577  0.000000      1.000000
 -0.067515  0.122194  0.000000      1.000000
 -0.000812 -0.080994  0.000000      1.000000
  0.068326 -0.041200  0.000000      1.000000
  0.137464 -0.001406  0.000000      1.000000
 -0.069949 -0.120788  0.000000      1.000000
 


--------------------------------------------------------------------------------------------------------




 Dimension of arrays:
   k-points           NKPTS =     16   k-points in BZ     NKDIM =     16   number of bands    NBANDS=     22
   number of dos      NEDOS =    301   number of ions     NIONS =      4
   non local maximal  LDIM  =      6   non local SUM 2l+1 LMDIM =     18
   total plane-waves  NPLWV =  57600
   max r-space proj   IRMAX =      1   max aug-charges    IRDMAX=  15736
   dimension x,y,z NGX =    24 NGY =   20 NGZ =  120
   dimension x,y,z NGXF=    48 NGYF=   40 NGZF=  240
   support grid    NGXF=    48 NGYF=   40 NGZF=  240
   ions per type =               1   1   2
   NGX,Y,Z   is equivalent  to a cutoff of  10.97,  9.28,  9.97 a.u.
   NGXF,Y,Z  is equivalent  to a cutoff of  21.94, 18.56, 19.95 a.u.

 SYSTEM =  unknown system                          
 POSCAR =  ClBrPt2                                 

 Startparameter for this run:
   NWRITE =      2    write-flag & timer
   PREC   = accura    normal or accurate (medium, high low for compatibility)
   ISTART =      0    job   : 0-new  1-cont  2-samecut
   ICHARG =      2    charge: 1-file 2-atom 10-const
   ISPIN  =      1    spin polarized calculation?
   LNONCOLLINEAR =      F non collinear calculations
   LSORBIT =      F    spin-orbit coupling
   INIWAV =      1    electr: 0-lowe 1-rand  2-diag
   LASPH  =      F    aspherical Exc in radial PAW
   METAGGA=      F    non-selfconsistent MetaGGA calc.

 Electronic Relaxation 1
   ENCUT  =  300.0 eV  22.05 Ry    4.70 a.u.   5.14  5.06 28.25*2*pi/ulx,y,z
   ENINI  =  300.0     initial cutoff
   ENAUG  =  503.9 eV  augmentation charge cutoff
   NELM   =     60;   NELMIN=  2; NELMDL= -5     # of ELM steps 
   EDIFF  = 0.5E-04   stopping-criterion for ELM
   LREAL  =      F    real-space projection
   NLSPLINE    = F    spline interpolate recip. space projectors
   LCOMPAT=      F    compatible to vasp.4.4
   GGA_COMPAT  = T    GGA compatible to vasp.4.4-vasp.4.6
   LMAXPAW     = -100 max onsite density
   LMAXMIX     =    2 max onsite mixed and CHGCAR
   VOSKOWN=      0    Vosko Wilk Nusair interpolation
   ROPT   =    0.00000   0.00000   0.00000
 Ionic relaxation
   EDIFFG = 0.5E-03   stopping-criterion for IOM
   NSW    =    100    number of steps for IOM
   NBLOCK =      1;   KBLOCK =    100    inner block; outer block 
   IBRION =      1    ionic relax: 0-MD 1-quasi-New 2-CG
   NFREE  =      0    steps in history (QN), initial steepest desc. (CG)
   ISIF   =      3    stress and relaxation
   IWAVPR =     11    prediction:  0-non 1-charg 2-wave 3-comb
   ISYM   =     -1    0-nonsym 1-usesym 2-fastsym
   LCORR  =      T    Harris-Foulkes like correction to forces

   POTIM  = 0.5000    time-step for ionic-motion
   TEIN   =    0.0    initial temperature
   TEBEG  =    0.0;   TEEND  =   0.0 temperature during run
   SMASS  =  -3.00    Nose mass-parameter (am)
   estimated Nose-frequenzy (Omega)   =  0.10E-29 period in steps =****** mass=  -0.302E-27a.u.
   SCALEE = 1.0000    scale energy and forces
   NPACO  =    256;   APACO  = 16.0  distance and # of slots for P.C.
   PSTRESS=    0.0 pullay stress

  Mass of Ions in am
   POMASS =  35.45 79.90195.08
  Ionic Valenz
   ZVAL   =   7.00  7.00 10.00
  Atomic Wigner-Seitz radii
   RWIGS  =  -1.00 -1.00 -1.00
  virtual crystal weights 
   VCA    =   1.00  1.00  1.00
   NELECT =      34.0000    total number of electrons
   NUPDOWN=      -1.0000    fix difference up-down

 DOS related values:
   EMIN   =  10.00;   EMAX   =-10.00  energy-range for DOS
   EFERMI =   0.00
   ISMEAR =     0;   SIGMA  =   0.10  broadening in eV -4-tet -1-fermi 0-gaus

 Electronic relaxation 2 (details)
   IALGO  =     38    algorithm
   LDIAG  =      T    sub-space diagonalisation (order eigenvalues)
   LSUBROT=      F    optimize rotation matrix (better conditioning)
   TURBO    =      0    0=normal 1=particle mesh
   IRESTART =      0    0=no restart 2=restart with 2 vectors
   NREBOOT  =      0    no. of reboots
   NMIN     =      0    reboot dimension
   EREF     =   0.00    reference energy to select bands
   IMIX   =      4    mixing-type and parameters
     AMIX     =   0.40;   BMIX     =  1.00
     AMIX_MAG =   1.60;   BMIX_MAG =  1.00
     AMIN     =   0.10
     WC   =   100.;   INIMIX=   1;  MIXPRE=   1;  MAXMIX= -45

 Intra band minimization:
   WEIMIN = 0.0010     energy-eigenvalue tresh-hold
   EBREAK =  0.57E-06  absolut break condition
   DEPER  =   0.30     relativ break condition  

   TIME   =   0.40     timestep for ELM

  volume/ion in A,a.u.               =      56.13       378.78
  Fermi-wavevector in a.u.,A,eV,Ry     =   0.872603  1.648981 10.359972  0.761436
  Thomas-Fermi vector in A             =   1.991876
 
 Write flags
   LWAVE        =      T    write WAVECAR
   LDOWNSAMPLE  =      F    k-point downsampling of WAVECAR
   LCHARG       =      T    write CHGCAR
   LVTOT        =      F    write LOCPOT, total local potential
   LVHAR        =      F    write LOCPOT, Hartree potential only
   LELF         =      F    write electronic localiz. function (ELF)
   LORBIT       =      0    0 simple, 1 ext, 2 COOP (PROOUT), +10 PAW based schemes


 Dipole corrections
   LMONO  =      F    monopole corrections only (constant potential shift)
   LDIPOL =      T    correct potential (dipole corrections)
   IDIPOL =      3    1-x, 2-y, 3-z, 4-all directions 
   EPSILON=  1.0000000 bulk dielectric constant

 Exchange correlation treatment:
   GGA     =    --    GGA type
   LEXCH   =     8    internal setting for exchange type
   VOSKOWN=      0    Vosko Wilk Nusair interpolation
   LHFCALC =     F    Hartree Fock is set to
   LHFONE  =     F    Hartree Fock one center treatment
   AEXX    =    0.0000 exact exchange contribution

 Linear response parameters
   LEPSILON=     F    determine dielectric tensor
   LRPA    =     F    only Hartree local field effects (RPA)
   LNABLA  =     F    use nabla operator in PAW spheres
   LVEL    =     F    velocity operator in full k-point grid
   LINTERFAST=   F  fast interpolation
   KINTER  =     0    interpolate to denser k-point grid
   CSHIFT  =0.1000    complex shift for real part using Kramers Kronig
   OMEGAMAX=  -1.0    maximum frequency
   DEG_THRESHOLD= 0.2000000E-02 threshold for treating states as degnerate
   RTIME   =   -0.100 relaxation time in fs
  (WPLASMAI=    0.000 imaginary part of plasma frequency in eV, 0.658/RTIME)
   DFIELD  = 0.0000000 0.0000000 0.0000000 field for delta impulse in time
 
 Orbital magnetization related:
   ORBITALMAG=     F  switch on orbital magnetization
   LCHIMAG   =     F  perturbation theory with respect to B field
   DQ        =  0.001000  dq finite difference perturbation B field
   LLRAUG    =     F  two centre corrections for induced B field



--------------------------------------------------------------------------------------------------------


 quasi-Newton-method for relaxation of ions
 charge density and potential will be updated during run
 non-spin polarized calculation
 Variant of blocked Davidson
 Davidson routine will perform the subspace rotation
 perform sub-space diagonalisation
    after iterative eigenvector-optimisation
 modified Broyden-mixing scheme, WC =      100.0
 initial mixing is a Kerker type mixing with AMIX =  0.4000 and BMIX =      1.0000
 Hartree-type preconditioning will be used
 using additional bands            5
 reciprocal scheme for non local part
 use partial core corrections
 calculate Harris-corrections to forces 
   (improved forces if not selfconsistent)
 use gradient corrections 
 use of overlap-Matrix (Vanderbilt PP)
 Gauss-broadening in eV      SIGMA  =   0.10


--------------------------------------------------------------------------------------------------------


  energy-cutoff  :      300.00
  volume of cell :      224.52
      direct lattice vectors                 reciprocal lattice vectors
     3.636944978 -0.036443352  0.000000000     0.276551047  0.159176935  0.000000000
    -1.786911496  3.104546809  0.000000000     0.003246350  0.323976736  0.000000000
     0.000000000  0.000000000 20.000000000     0.000000000  0.000000000  0.050000000

  length of vectors
     3.637127560  3.582075318 20.000000000     0.319088981  0.323993000  0.050000000


 
 k-points in units of 2pi/SCALE and weight: Automatic mesh                          
   0.00000000  0.00000000  0.00000000       0.062
   0.06913776  0.03979423  0.00000000       0.062
   0.13827552  0.07958847  0.00000000       0.062
  -0.06913776 -0.03979423  0.00000000       0.062
   0.00081159  0.08099418  0.00000000       0.062
   0.06994935  0.12078842  0.00000000       0.062
   0.13908711  0.16058265  0.00000000       0.062
  -0.06832617  0.04119995  0.00000000       0.062
   0.00162318  0.16198837  0.00000000       0.062
   0.07076094  0.20178260  0.00000000       0.062
   0.13989870  0.24157684  0.00000000       0.062
  -0.06751459  0.12219413  0.00000000       0.062
  -0.00081159 -0.08099418  0.00000000       0.062
   0.06832617 -0.04119995  0.00000000       0.062
   0.13746394 -0.00140572  0.00000000       0.062
  -0.06994935 -0.12078842  0.00000000       0.062
 
 k-points in reciprocal lattice and weights: Automatic mesh                          
   0.00000000  0.00000000  0.00000000       0.062
   0.25000000  0.00000000  0.00000000       0.062
   0.50000000  0.00000000  0.00000000       0.062
  -0.25000000 -0.00000000  0.00000000       0.062
   0.00000000  0.25000000  0.00000000       0.062
   0.25000000  0.25000000  0.00000000       0.062
   0.50000000  0.25000000  0.00000000       0.062
  -0.25000000  0.25000000  0.00000000       0.062
   0.00000000  0.50000000  0.00000000       0.062
   0.25000000  0.50000000  0.00000000       0.062
   0.50000000  0.50000000  0.00000000       0.062
  -0.25000000  0.50000000  0.00000000       0.062
  -0.00000000 -0.25000000  0.00000000       0.062
   0.25000000 -0.25000000  0.00000000       0.062
   0.50000000 -0.25000000  0.00000000       0.062
  -0.25000000 -0.25000000  0.00000000       0.062
 
 position of ions in fractional coordinates (direct lattice) 
   0.00003284  0.49996180  0.16834626
   0.00003221  0.49995994  0.38572384
   0.33336542  0.16662742  0.31048675
   0.66669892  0.83329448  0.23567645
 
 position of ions in cartesian coordinates  (Angst):
  -0.89326804  1.55215361  3.36692514
  -0.89326702  1.55214786  7.71447671
   0.91468324  0.50515367  6.20973506
   0.93572381  2.56270498  4.71352901
 


--------------------------------------------------------------------------------------------------------


 k-point  1 :   0.0000 0.0000 0.0000  plane waves:    2625
 k-point  2 :   0.2500 0.0000 0.0000  plane waves:    2638
 k-point  3 :   0.5000 0.0000 0.0000  plane waves:    2646
 k-point  4 :  -0.2500-0.0000 0.0000  plane waves:    2638
 k-point  5 :   0.0000 0.2500 0.0000  plane waves:    2647
 k-point  6 :   0.2500 0.2500 0.0000  plane waves:    2664
 k-point  7 :   0.5000 0.2500 0.0000  plane waves:    2663
 k-point  8 :  -0.2500 0.2500 0.0000  plane waves:    2637
 k-point  9 :   0.0000 0.5000 0.0000  plane waves:    2646
 k-point 10 :   0.2500 0.5000 0.0000  plane waves:    2664
 k-point 11 :   0.5000 0.5000 0.0000  plane waves:    2646
 k-point 12 :  -0.2500 0.5000 0.0000  plane waves:    2664
 k-point 13 :  -0.0000-0.2500 0.0000  plane waves:    2647
 k-point 14 :   0.2500-0.2500 0.0000  plane waves:    2637
 k-point 15 :   0.5000-0.2500 0.0000  plane waves:    2663
 k-point 16 :  -0.2500-0.2500 0.0000  plane waves:    2664

 maximum and minimum number of plane-waves per node :      2664     2625

 maximum number of plane-waves:      2664
 maximum index in each direction: 
   IXMAX=    5   IYMAX=    5   IZMAX=   28
   IXMIN=   -5   IYMIN=   -5   IZMIN=  -28


 serial   3D FFT for wavefunctions
 parallel 3D FFT for charge:
    minimum data exchange during FFTs selected (reduces bandwidth)


 total amount of memory used by VASP MPI-rank0    81477. kBytes
=======================================================================

   base      :      30000. kBytes
   nonl-proj :      18584. kBytes
   fftplans  :       8017. kBytes
   grid      :      17149. kBytes
   one-center:         62. kBytes
   wavefun   :       7665. kBytes
 
     INWAV:  cpu time    0.0000: real time    0.0000
 Broyden mixing: mesh for mixing (old mesh)
   NGX = 11   NGY = 11   NGZ = 57
  (NGX  = 48   NGY  = 40   NGZ  =240)
  gives a total of   6897 points

 initial charge density was supplied:
 charge density of overlapping atoms calculated
 number of electron      34.0000000 magnetization 
 keeping initial charge density in first step


--------------------------------------------------------------------------------------------------------


 Maximum index for augmentation-charges         7537 (set IRDMAX)


--------------------------------------------------------------------------------------------------------


 First call to EWALD:  gamma=   0.292
 Maximum number of real-space cells 5x 5x 1
 Maximum number of reciprocal cells 2x 2x 8

    FEWALD:  cpu time    0.0011: real time    0.0010


--------------------------------------- Iteration      1(   1)  ---------------------------------------


    POTLOK:  cpu time    0.1987: real time    0.1987
    SETDIJ:  cpu time    0.0053: real time    0.0053
     EDDAV:  cpu time    0.6096: real time    0.6097
       DOS:  cpu time    0.0003: real time    0.0003
    --------------------------------------------
      LOOP:  cpu time    0.8140: real time    0.8140

 eigenvalue-minimisations  :   712
 total energy-change (2. order) : 0.2227735E+03  (-0.1014073E+04)
 number of electron      34.0000000 magnetization 
 augmentation part       34.0000000 magnetization 

 DIPCOR: dipole corrections for dipol
 direction  3 min pos   183,
 dipolmoment           0.000000      0.000000     -0.000023 electrons x Angstroem
 Tr[quadrupol]       -77.720843

 energy correction for charged system         0.000000 eV
 dipol+quadrupol energy correction           -0.000000 eV
 added-field ion interaction          0.000204 eV  (added to PSCEN)


 Free energy of the ion-electron system (eV)
  ---------------------------------------------------
  alpha Z        PSCENC =        43.23222350
  Ewald energy   TEWEN  =      6106.36921915
  -Hartree energ DENC   =     -8297.63201933
  -exchange      EXHF   =         0.00000000
  -V(xc)+E(xc)   XCENC  =        37.39148293
  PAW double counting   =      2012.60260865    -1949.97488812
  entropy T*S    EENTRO =        -0.01946845
  eigenvalues    EBANDS =        34.49980677
  atomic energy  EATOM  =      2236.30457717
  Solvation  Ediel_sol  =         0.00000000
  ---------------------------------------------------
  free energy    TOTEN  =       222.77354225 eV

  energy without entropy =      222.79301070  energy(sigma->0) =      222.78327648


--------------------------------------------------------------------------------------------------------




--------------------------------------- Iteration      1(   2)  ---------------------------------------


     EDDAV:  cpu time    0.8092: real time    0.8092
       DOS:  cpu time    0.0003: real time    0.0003
    --------------------------------------------
      LOOP:  cpu time    0.8094: real time    0.8094

 eigenvalue-minimisations  :  1058
 total energy-change (2. order) :-0.2201205E+03  (-0.2103939E+03)
 number of electron      34.0000000 magnetization 
 augmentation part       34.0000000 magnetization 

 DIPCOR: dipole corrections for dipol
 direction  3 min pos   183,
 dipolmoment           0.000000      0.000000     -0.000023 electrons x Angstroem
 Tr[quadrupol]       -77.720843

 energy correction for charged system         0.000000 eV
 dipol+quadrupol energy correction           -0.000000 eV
 added-field ion interaction          0.000204 eV  (added to PSCEN)


 Free energy of the ion-electron system (eV)
  ---------------------------------------------------
  alpha Z        PSCENC =        43.23222350
  Ewald energy   TEWEN  =      6106.36921915
  -Hartree energ DENC   =     -8297.63201933
  -exchange      EXHF   =         0.00000000
  -V(xc)+E(xc)   XCENC  =        37.39148293
  PAW double counting   =      2012.60260865    -1949.97488812
  entropy T*S    EENTRO =        -0.00011485
  eigenvalues    EBANDS =      -185.64001535
  atomic energy  EATOM  =      2236.30457717
  Solvation  Ediel_sol  =         0.00000000
  ---------------------------------------------------
  free energy    TOTEN  =         2.65307374 eV

  energy without entropy =        2.65318858  energy(sigma->0) =        2.65313116


--------------------------------------------------------------------------------------------------------




--------------------------------------- Iteration      1(   3)  ---------------------------------------


     EDDAV:  cpu time    0.6877: real time    0.6878
       DOS:  cpu time    0.0002: real time    0.0002
    --------------------------------------------
      LOOP:  cpu time    0.6879: real time    0.6880

 eigenvalue-minimisations  :   854
 total energy-change (2. order) :-0.1961927E+02  (-0.1900312E+02)
 number of electron      34.0000000 magnetization 
 augmentation part       34.0000000 magnetization 

 DIPCOR: dipole corrections for dipol
 direction  3 min pos   183,
 dipolmoment           0.000000      0.000000     -0.000023 electrons x Angstroem
 Tr[quadrupol]       -77.720843

 energy correction for charged system         0.000000 eV
 dipol+quadrupol energy correction           -0.000000 eV
 added-field ion interaction          0.000204 eV  (added to PSCEN)


 Free energy of the ion-electron system (eV)
  ---------------------------------------------------
  alpha Z        PSCENC =        43.23222350
  Ewald energy   TEWEN  =      6106.36921915
  -Hartree energ DENC   =     -8297.63201933
  -exchange      EXHF   =         0.00000000
  -V(xc)+E(xc)   XCENC  =        37.39148293
  PAW double counting   =      2012.60260865    -1949.97488812
  entropy T*S    EENTRO =        -0.00000000
  eigenvalues    EBANDS =      -205.25940419
  atomic energy  EATOM  =      2236.30457717
  Solvation  Ediel_sol  =         0.00000000
  ---------------------------------------------------
  free energy    TOTEN  =       -16.96620026 eV

  energy without entropy =      -16.96620026  energy(sigma->0) =      -16.96620026


--------------------------------------------------------------------------------------------------------




--------------------------------------- Iteration      1(   4)  ---------------------------------------


     EDDAV:  cpu time    0.7117: real time    0.7117
       DOS:  cpu time    0.0002: real time    0.0002
    --------------------------------------------
      LOOP:  cpu time    0.7119: real time    0.7119

 eigenvalue-minimisations  :   880
 total energy-change (2. order) :-0.4351744E+00  (-0.4343386E+00)
 number of electron      34.0000000 magnetization 
 augmentation part       34.0000000 magnetization 

 DIPCOR: dipole corrections for dipol
 direction  3 min pos   183,
 dipolmoment           0.000000      0.000000     -0.000023 electrons x Angstroem
 Tr[quadrupol]       -77.720843

 energy correction for charged system         0.000000 eV
 dipol+quadrupol energy correction           -0.000000 eV
 added-field ion interaction          0.000204 eV  (added to PSCEN)


 Free energy of the ion-electron system (eV)
  ---------------------------------------------------
  alpha Z        PSCENC =        43.23222350
  Ewald energy   TEWEN  =      6106.36921915
  -Hartree energ DENC   =     -8297.63201933
  -exchange      EXHF   =         0.00000000
  -V(xc)+E(xc)   XCENC  =        37.39148293
  PAW double counting   =      2012.60260865    -1949.97488812
  entropy T*S    EENTRO =        -0.00000000
  eigenvalues    EBANDS =      -205.69457855
  atomic energy  EATOM  =      2236.30457717
  Solvation  Ediel_sol  =         0.00000000
  ---------------------------------------------------
  free energy    TOTEN  =       -17.40137461 eV

  energy without entropy =      -17.40137461  energy(sigma->0) =      -17.40137461


--------------------------------------------------------------------------------------------------------




--------------------------------------- Iteration      1(   5)  ---------------------------------------


     EDDAV:  cpu time    0.7001: real time    0.7001
       DOS:  cpu time    0.0002: real time    0.0002
    CHARGE:  cpu time    0.0669: real time    0.0669
    MIXING:  cpu time    0.0060: real time    0.0060
    --------------------------------------------
      LOOP:  cpu time    0.7731: real time    0.7732

 eigenvalue-minimisations  :   868
 total energy-change (2. order) :-0.1054439E-01  (-0.1054022E-01)
 number of electron      33.9999998 magnetization 
 augmentation part        3.4322242 magnetization 

 DIPCOR: dipole corrections for dipol
 direction  3 min pos   183,
 dipolmoment           0.000000      0.000000     -0.000023 electrons x Angstroem
 Tr[quadrupol]       -77.720843

 energy correction for charged system         0.000000 eV
 dipol+quadrupol energy correction           -0.000000 eV
 added-field ion interaction          0.000204 eV  (added to PSCEN)


 Broyden mixing:
  rms(total) = 0.16619E+01    rms(broyden)= 0.16617E+01
  rms(prec ) = 0.16841E+01
  weight for this iteration     100.00

 Free energy of the ion-electron system (eV)
  ---------------------------------------------------
  alpha Z        PSCENC =        43.23222350
  Ewald energy   TEWEN  =      6106.36921915
  -Hartree energ DENC   =     -8297.63201933
  -exchange      EXHF   =         0.00000000
  -V(xc)+E(xc)   XCENC  =        37.39148293
  PAW double counting   =      2012.60260865    -1949.97488812
  entropy T*S    EENTRO =        -0.00000000
  eigenvalues    EBANDS =      -205.70512294
  atomic energy  EATOM  =      2236.30457717
  Solvation  Ediel_sol  =         0.00000000
  ---------------------------------------------------
  free energy    TOTEN  =       -17.41191901 eV

  energy without entropy =      -17.41191901  energy(sigma->0) =      -17.41191901


--------------------------------------------------------------------------------------------------------




--------------------------------------- Iteration      1(   6)  ---------------------------------------


    POTLOK:  cpu time    0.1950: real time    0.1953
    SETDIJ:  cpu time    0.0049: real time    0.0049
     EDDAV:  cpu time    0.7017: real time    0.7017
       DOS:  cpu time    0.0002: real time    0.0002
    CHARGE:  cpu time    0.0674: real time    0.0674
    MIXING:  cpu time    0.0060: real time    0.0060
    --------------------------------------------
      LOOP:  cpu time    0.9752: real time    0.9755

 eigenvalue-minimisations  :   866
 total energy-change (2. order) : 0.8379710E+00  (-0.2207494E+00)
 number of electron      33.9999999 magnetization 
 augmentation part        3.8363049 magnetization 

 DIPCOR: dipole corrections for dipol
 direction  3 min pos   187,
 dipolmoment           0.000000      0.000000     -0.035202 electrons x Angstroem
 Tr[quadrupol]       -77.646357

 energy correction for charged system         0.000000 eV
 dipol+quadrupol energy correction           -0.000499 eV
 added-field ion interaction         -0.005605 eV  (added to PSCEN)


 Broyden mixing:
  rms(total) = 0.93471E+00    rms(broyden)= 0.93470E+00
  rms(prec ) = 0.93913E+00
  weight for this iteration     100.00

 eigenvalues of (default mixing * dielectric matrix)
  average eigenvalue GAMMA=   1.9174
  1.9174

 Free energy of the ion-electron system (eV)
  ---------------------------------------------------
  alpha Z        PSCENC =        43.22591547
  Ewald energy   TEWEN  =      6106.36921915
  -Hartree energ DENC   =     -8282.79353846
  -exchange      EXHF   =         0.00000000
  -V(xc)+E(xc)   XCENC  =        37.10965764
  PAW double counting   =      2298.34350735    -2238.88383697
  entropy T*S    EENTRO =        -0.00000000
  eigenvalues    EBANDS =      -216.24944935
  atomic energy  EATOM  =      2236.30457717
  Solvation  Ediel_sol  =         0.00000000
  ---------------------------------------------------
  free energy    TOTEN  =       -16.57394802 eV

  energy without entropy =      -16.57394802  energy(sigma->0) =      -16.57394802


--------------------------------------------------------------------------------------------------------




--------------------------------------- Iteration      1(   7)  ---------------------------------------


    POTLOK:  cpu time    0.1902: real time    0.1902
    SETDIJ:  cpu time    0.0049: real time    0.0049
     EDDAV:  cpu time    0.6754: real time    0.6754
       DOS:  cpu time    0.0002: real time    0.0002
    CHARGE:  cpu time    0.0658: real time    0.0659
    MIXING:  cpu time    0.0060: real time    0.0061
    --------------------------------------------
      LOOP:  cpu time    0.9426: real time    0.9427

 eigenvalue-minimisations  :   812
 total energy-change (2. order) :-0.8039757E-02  (-0.5927806E-01)
 number of electron      33.9999999 magnetization 
 augmentation part        3.8154707 magnetization 

 DIPCOR: dipole corrections for dipol
 direction  3 min pos   180,
 dipolmoment           0.000000      0.000000     -0.003000 electrons x Angstroem
 Tr[quadrupol]       -77.923586

 energy correction for charged system         0.000000 eV
 dipol+quadrupol energy correction           -0.000004 eV
 added-field ion interaction          0.047477 eV  (added to PSCEN)


 Broyden mixing:
  rms(total) = 0.31308E+00    rms(broyden)= 0.31306E+00
  rms(prec ) = 0.33619E+00
  weight for this iteration     100.00

 eigenvalues of (default mixing * dielectric matrix)
  average eigenvalue GAMMA=   1.5711
  0.8262  2.3159

 Free energy of the ion-electron system (eV)
  ---------------------------------------------------
  alpha Z        PSCENC =        43.27949253
  Ewald energy   TEWEN  =      6106.36921915
  -Hartree energ DENC   =     -8287.47136919
  -exchange      EXHF   =         0.00000000
  -V(xc)+E(xc)   XCENC  =        37.02260986
  PAW double counting   =      2652.98310394    -2595.86044798
  entropy T*S    EENTRO =        -0.00000000
  eigenvalues    EBANDS =      -209.20917324
  atomic energy  EATOM  =      2236.30457717
  Solvation  Ediel_sol  =         0.00000000
  ---------------------------------------------------
  free energy    TOTEN  =       -16.58198777 eV

  energy without entropy =      -16.58198777  energy(sigma->0) =      -16.58198777


--------------------------------------------------------------------------------------------------------




--------------------------------------- Iteration      1(   8)  ---------------------------------------


    POTLOK:  cpu time    0.1931: real time    0.1931
    SETDIJ:  cpu time    0.0049: real time    0.0049
     EDDAV:  cpu time    0.6932: real time    0.6932
       DOS:  cpu time    0.0002: real time    0.0002
    CHARGE:  cpu time    0.0662: real time    0.0662
    MIXING:  cpu time    0.0061: real time    0.0061
    --------------------------------------------
      LOOP:  cpu time    0.9637: real time    0.9638

 eigenvalue-minimisations  :   848
 total energy-change (2. order) :-0.4694668E-01  (-0.4578765E-01)
 number of electron      33.9999999 magnetization 
 augmentation part        3.8187182 magnetization 

 DIPCOR: dipole corrections for dipol
 direction  3 min pos   188,
 dipolmoment           0.000000      0.000000     -0.071841 electrons x Angstroem
 Tr[quadrupol]       -77.913982

 energy correction for charged system         0.000000 eV
 dipol+quadrupol energy correction           -0.002080 eV
 added-field ion interaction         -0.175490 eV  (added to PSCEN)


 Broyden mixing:
  rms(total) = 0.24933E+00    rms(broyden)= 0.24928E+00
  rms(prec ) = 0.30238E+00
  weight for this iteration     100.00

 eigenvalues of (default mixing * dielectric matrix)
  average eigenvalue GAMMA=   1.2681
  2.4396  0.9570  0.4077

 Free energy of the ion-electron system (eV)
  ---------------------------------------------------
  alpha Z        PSCENC =        43.05445003
  Ewald energy   TEWEN  =      6106.36921915
  -Hartree energ DENC   =     -8286.93016483
  -exchange      EXHF   =         0.00000000
  -V(xc)+E(xc)   XCENC  =        37.04284096
  PAW double counting   =      2765.22039956    -2708.72452722
  entropy T*S    EENTRO =        -0.00000000
  eigenvalues    EBANDS =      -208.96572925
  atomic energy  EATOM  =      2236.30457717
  Solvation  Ediel_sol  =         0.00000000
  ---------------------------------------------------
  free energy    TOTEN  =       -16.62893445 eV

  energy without entropy =      -16.62893445  energy(sigma->0) =      -16.62893445


--------------------------------------------------------------------------------------------------------




--------------------------------------- Iteration      1(   9)  ---------------------------------------


    POTLOK:  cpu time    0.1925: real time    0.1926
    SETDIJ:  cpu time    0.0049: real time    0.0049
     EDDAV:  cpu time    0.6638: real time    0.6638
       DOS:  cpu time    0.0002: real time    0.0002
    CHARGE:  cpu time    0.0661: real time    0.0661
    MIXING:  cpu time    0.0090: real time    0.0090
    --------------------------------------------
      LOOP:  cpu time    0.9365: real time    0.9366

 eigenvalue-minimisations  :   800
 total energy-change (2. order) : 0.1064652E+00  (-0.1525722E-01)
 number of electron      33.9999999 magnetization 
 augmentation part        3.8453408 magnetization 

 DIPCOR: dipole corrections for dipol
 direction  3 min pos   195,
 dipolmoment           0.000000      0.000000     -0.033733 electrons x Angstroem
 Tr[quadrupol]       -77.867667

 energy correction for charged system         0.000000 eV
 dipol+quadrupol energy correction           -0.000459 eV
 added-field ion interaction         -0.621621 eV  (added to PSCEN)


 Broyden mixing:
  rms(total) = 0.42548E-01    rms(broyden)= 0.42476E-01
  rms(prec ) = 0.44594E-01
  weight for this iteration     100.00

 eigenvalues of (default mixing * dielectric matrix)
  average eigenvalue GAMMA=   1.3037
  2.4575  1.4531  0.9053  0.3987

 Free energy of the ion-electron system (eV)
  ---------------------------------------------------
  alpha Z        PSCENC =        42.60994021
  Ewald energy   TEWEN  =      6106.36921915
  -Hartree energ DENC   =     -8285.93268875
  -exchange      EXHF   =         0.00000000
  -V(xc)+E(xc)   XCENC  =        37.05191202
  PAW double counting   =      2790.61418453    -2734.23741315
  entropy T*S    EENTRO =        -0.00000000
  eigenvalues    EBANDS =      -209.30220045
  atomic energy  EATOM  =      2236.30457717
  Solvation  Ediel_sol  =         0.00000000
  ---------------------------------------------------
  free energy    TOTEN  =       -16.52246928 eV

  energy without entropy =      -16.52246928  energy(sigma->0) =      -16.52246928


--------------------------------------------------------------------------------------------------------




--------------------------------------- Iteration      1(  10)  ---------------------------------------


    POTLOK:  cpu time    0.1917: real time    0.1917
    SETDIJ:  cpu time    0.0050: real time    0.0050
     EDDAV:  cpu time    0.6278: real time    0.6278
       DOS:  cpu time    0.0002: real time    0.0002
    CHARGE:  cpu time    0.0675: real time    0.0675
    MIXING:  cpu time    0.0063: real time    0.0063
    --------------------------------------------
      LOOP:  cpu time    0.8984: real time    0.8985

 eigenvalue-minimisations  :   758
 total energy-change (2. order) : 0.6664656E-03  (-0.2601900E-02)
 number of electron      33.9999999 magnetization 
 augmentation part        3.8433549 magnetization 

 DIPCOR: dipole corrections for dipol
 direction  3 min pos   197,
 dipolmoment           0.000000      0.000000     -0.039107 electrons x Angstroem
 Tr[quadrupol]       -77.841520

 energy correction for charged system         0.000000 eV
 dipol+quadrupol energy correction           -0.000616 eV
 added-field ion interaction         -0.899262 eV  (added to PSCEN)


 Broyden mixing:
  rms(total) = 0.13251E-01    rms(broyden)= 0.13248E-01
  rms(prec ) = 0.15158E-01
  weight for this iteration     100.00

 eigenvalues of (default mixing * dielectric matrix)
  average eigenvalue GAMMA=   1.2290
  2.4655  1.4681  0.9109  0.9109  0.3897

 Free energy of the ion-electron system (eV)
  ---------------------------------------------------
  alpha Z        PSCENC =        42.33214163
  Ewald energy   TEWEN  =      6106.36921915
  -Hartree energ DENC   =     -8286.14584714
  -exchange      EXHF   =         0.00000000
  -V(xc)+E(xc)   XCENC  =        37.08592197
  PAW double counting   =      2796.51524756    -2740.08506697
  entropy T*S    EENTRO =        -0.00000000
  eigenvalues    EBANDS =      -208.89799619
  atomic energy  EATOM  =      2236.30457717
  Solvation  Ediel_sol  =         0.00000000
  ---------------------------------------------------
  free energy    TOTEN  =       -16.52180282 eV

  energy without entropy =      -16.52180282  energy(sigma->0) =      -16.52180282


--------------------------------------------------------------------------------------------------------




--------------------------------------- Iteration      1(  11)  ---------------------------------------


    POTLOK:  cpu time    0.1876: real time    0.1879
    SETDIJ:  cpu time    0.0094: real time    0.0094
     EDDAV:  cpu time    0.6802: real time    0.6802
       DOS:  cpu time    0.0002: real time    0.0002
    CHARGE:  cpu time    0.0681: real time    0.0681
    MIXING:  cpu time    0.0064: real time    0.0064
    --------------------------------------------
      LOOP:  cpu time    0.9518: real time    0.9521

 eigenvalue-minimisations  :   854
 total energy-change (2. order) : 0.4153837E-04  (-0.1909289E-03)
 number of electron      33.9999999 magnetization 
 augmentation part        3.8408887 magnetization 

 DIPCOR: dipole corrections for dipol
 direction  3 min pos   198,
 dipolmoment           0.000000      0.000000     -0.038017 electrons x Angstroem
 Tr[quadrupol]       -77.845764

 energy correction for charged system         0.000000 eV
 dipol+quadrupol energy correction           -0.000582 eV
 added-field ion interaction         -0.960999 eV  (added to PSCEN)


 Broyden mixing:
  rms(total) = 0.85021E-02    rms(broyden)= 0.85002E-02
  rms(prec ) = 0.88084E-02
  weight for this iteration     100.00

 eigenvalues of (default mixing * dielectric matrix)
  average eigenvalue GAMMA=   1.2565
  2.3700  2.0441  0.3900  0.8700  0.8700  0.9952

 Free energy of the ion-electron system (eV)
  ---------------------------------------------------
  alpha Z        PSCENC =        42.27043776
  Ewald energy   TEWEN  =      6106.36921915
  -Hartree energ DENC   =     -8286.52323897
  -exchange      EXHF   =         0.00000000
  -V(xc)+E(xc)   XCENC  =        37.09170929
  PAW double counting   =      2796.09084864    -2739.65554160
  entropy T*S    EENTRO =        -0.00000000
  eigenvalues    EBANDS =      -208.46977272
  atomic energy  EATOM  =      2236.30457717
  Solvation  Ediel_sol  =         0.00000000
  ---------------------------------------------------
  free energy    TOTEN  =       -16.52176128 eV

  energy without entropy =      -16.52176128  energy(sigma->0) =      -16.52176128


--------------------------------------------------------------------------------------------------------




--------------------------------------- Iteration      1(  12)  ---------------------------------------


    POTLOK:  cpu time    0.1880: real time    0.1880
    SETDIJ:  cpu time    0.0135: real time    0.0135
     EDDAV:  cpu time    0.6505: real time    0.6505
       DOS:  cpu time    0.0002: real time    0.0002
    --------------------------------------------
      LOOP:  cpu time    0.8522: real time    0.8522

 eigenvalue-minimisations  :   796
 total energy-change (2. order) :-0.3077472E-04  (-0.1687531E-04)
 number of electron      33.9999999 magnetization 
 augmentation part        3.8408887 magnetization 

 DIPCOR: dipole corrections for dipol
 direction  3 min pos   199,
 dipolmoment           0.000000      0.000000     -0.037650 electrons x Angstroem
 Tr[quadrupol]       -77.845337

 energy correction for charged system         0.000000 eV
 dipol+quadrupol energy correction           -0.000571 eV
 added-field ion interaction         -1.037702 eV  (added to PSCEN)


 Free energy of the ion-electron system (eV)
  ---------------------------------------------------
  alpha Z        PSCENC =        42.19374593
  Ewald energy   TEWEN  =      6106.36921915
  -Hartree energ DENC   =     -8286.76672886
  -exchange      EXHF   =         0.00000000
  -V(xc)+E(xc)   XCENC  =        37.09623252
  PAW double counting   =      2793.78717347    -2737.34086081
  entropy T*S    EENTRO =        -0.00000000
  eigenvalues    EBANDS =      -208.16515061
  atomic energy  EATOM  =      2236.30457717
  Solvation  Ediel_sol  =         0.00000000
  ---------------------------------------------------
  free energy    TOTEN  =       -16.52179205 eV

  energy without entropy =      -16.52179205  energy(sigma->0) =      -16.52179205


--------------------------------------------------------------------------------------------------------




 average (electrostatic) potential at core
  the test charge radii are     0.9406  1.0178  1.2059
  (the norm of the test charge is              1.0000)
       1 -97.7255       2 -67.8630       3 -75.0228       4 -74.9764
 
 
 
 E-fermi :  -1.3480     XC(G=0):  -4.3878     alpha+bet : -4.0347


 k-point     1 :       0.0000    0.0000    0.0000
  band No.  band energies     occupation 
      1     -17.6274      2.00000
      2     -17.4836      2.00000
      3      -8.1395      2.00000
      4      -6.9079      2.00000
      5      -6.8760      2.00000
      6      -6.8684      2.00000
      7      -5.8793      2.00000
      8      -5.7519      2.00000
      9      -4.4142      2.00000
     10      -4.3660      2.00000
     11      -3.7782      2.00000
     12      -2.7879      2.00000
     13      -2.7181      2.00000
     14      -2.6536      2.00000
     15      -2.0541      2.00000
     16      -2.0380      2.00000
     17      -1.9923      2.00000
     18      -0.1545      0.00000
     19      -0.0591      0.00000
     20       2.3094      0.00000
     21       3.2869      0.00000
     22       3.8840      0.00000

 k-point     2 :       0.2500    0.0000    0.0000
  band No.  band energies     occupation 
      1     -17.3624      2.00000
      2     -17.2570      2.00000
      3      -7.7577      2.00000
      4      -7.0688      2.00000
      5      -6.7444      2.00000
      6      -6.6519      2.00000
      7      -6.2779      2.00000
      8      -5.4337      2.00000
      9      -5.1428      2.00000
     10      -4.6400      2.00000
     11      -4.4525      2.00000
     12      -3.0418      2.00000
     13      -2.8394      2.00000
     14      -2.7752      2.00000
     15      -2.1859      2.00000
     16      -2.1252      2.00000
     17      -1.8669      2.00000
     18      -0.0121      0.00000
     19       0.4383      0.00000
     20       3.7426      0.00000
     21       4.1054      0.00000
     22       4.5783      0.00000

 k-point     3 :       0.5000    0.0000    0.0000
  band No.  band energies     occupation 
      1     -17.1258      2.00000
      2     -16.9588      2.00000
      3      -7.8908      2.00000
      4      -7.5926      2.00000
      5      -6.5683      2.00000
      6      -6.5465      2.00000
      7      -6.1356      2.00000
      8      -5.7342      2.00000
      9      -4.7442      2.00000
     10      -4.4942      2.00000
     11      -3.3960      2.00000
     12      -3.2749      2.00000
     13      -3.1326      2.00000
     14      -2.8845      2.00000
     15      -2.8437      2.00000
     16      -2.8218      2.00000
     17      -2.3869      2.00000
     18      -0.0231      0.00000
     19       1.3426      0.00000
     20       2.5670      0.00000
     21       4.6249      0.00000
     22       5.0087      0.00000

 k-point     4 :      -0.2500   -0.0000    0.0000
  band No.  band energies     occupation 
      1     -17.3624      2.00000
      2     -17.2570      2.00000
      3      -7.7577      2.00000
      4      -7.0688      2.00000
      5      -6.7444      2.00000
      6      -6.6519      2.00000
      7      -6.2779      2.00000
      8      -5.4337      2.00000
      9      -5.1428      2.00000
     10      -4.6400      2.00000
     11      -4.4525      2.00000
     12      -3.0418      2.00000
     13      -2.8394      2.00000
     14      -2.7752      2.00000
     15      -2.1859      2.00000
     16      -2.1252      2.00000
     17      -1.8669      2.00000
     18      -0.0121      0.00000
     19       0.4383      0.00000
     20       3.7426      0.00000
     21       4.1054      0.00000
     22       4.5783      0.00000

 k-point     5 :       0.0000    0.2500    0.0000
  band No.  band energies     occupation 
      1     -17.3493      2.00000
      2     -17.2422      2.00000
      3      -7.7260      2.00000
      4      -7.0762      2.00000
      5      -6.7414      2.00000
      6      -6.6276      2.00000
      7      -6.2711      2.00000
      8      -5.5037      2.00000
      9      -5.1612      2.00000
     10      -4.7384      2.00000
     11      -4.3829      2.00000
     12      -3.0268      2.00000
     13      -2.8484      2.00000
     14      -2.7976      2.00000
     15      -2.1702      2.00000
     16      -2.1110      2.00000
     17      -1.8446      2.00000
     18      -0.0709      0.00000
     19       0.5134      0.00000
     20       3.8013      0.00000
     21       4.1204      0.00000
     22       4.5977      0.00000

 k-point     6 :       0.2500    0.2500    0.0000
  band No.  band energies     occupation 
      1     -17.1165      2.00000
      2     -16.9439      2.00000
      3      -7.5683      2.00000
      4      -7.1163      2.00000
      5      -6.9944      2.00000
      6      -6.3139      2.00000
      7      -6.2000      2.00000
      8      -5.8520      2.00000
      9      -5.3672      2.00000
     10      -5.1204      2.00000
     11      -3.7555      2.00000
     12      -3.3533      2.00000
     13      -3.0817      2.00000
     14      -2.8857      2.00000
     15      -2.7999      2.00000
     16      -2.2324      2.00000
     17      -1.9004      2.00000
     18      -0.1000      0.00000
     19       1.5214      0.00000
     20       3.2650      0.00000
     21       4.7135      0.00000
     22       5.6673      0.00000

 k-point     7 :       0.5000    0.2500    0.0000
  band No.  band energies     occupation 
      1     -17.1293      2.00000
      2     -16.9618      2.00000
      3      -7.5181      2.00000
      4      -7.0695      2.00000
      5      -7.0411      2.00000
      6      -6.2967      2.00000
      7      -6.1870      2.00000
      8      -5.8767      2.00000
      9      -5.3871      2.00000
     10      -5.1452      2.00000
     11      -3.7707      2.00000
     12      -3.3182      2.00000
     13      -3.1523      2.00000
     14      -2.9007      2.00000
     15      -2.8177      2.00000
     16      -2.1917      2.00000
     17      -1.9020      2.00000
     18      -0.0713      0.00000
     19       1.4290      0.00000
     20       3.3088      0.00000
     21       4.7476      0.00000
     22       5.6937      0.00000

 k-point     8 :      -0.2500    0.2500    0.0000
  band No.  band energies     occupation 
      1     -17.3623      2.00000
      2     -17.2568      2.00000
      3      -7.7573      2.00000
      4      -7.0689      2.00000
      5      -6.7445      2.00000
      6      -6.6516      2.00000
      7      -6.2779      2.00000
      8      -5.4346      2.00000
      9      -5.1431      2.00000
     10      -4.6410      2.00000
     11      -4.4516      2.00000
     12      -3.0416      2.00000
     13      -2.8398      2.00000
     14      -2.7753      2.00000
     15      -2.1857      2.00000
     16      -2.1251      2.00000
     17      -1.8666      2.00000
     18      -0.0130      0.00000
     19       0.4394      0.00000
     20       3.7434      0.00000
     21       4.1056      0.00000
     22       4.5786      0.00000

 k-point     9 :       0.0000    0.5000    0.0000
  band No.  band energies     occupation 
      1     -17.1014      2.00000
      2     -16.9233      2.00000
      3      -7.8604      2.00000
      4      -7.5947      2.00000
      5      -6.5745      2.00000
      6      -6.5734      2.00000
      7      -6.1201      2.00000
      8      -5.8356      2.00000
      9      -4.6958      2.00000
     10      -4.4971      2.00000
     11      -3.4512      2.00000
     12      -3.2487      2.00000
     13      -3.1934      2.00000
     14      -2.8774      2.00000
     15      -2.7924      2.00000
     16      -2.7320      2.00000
     17      -2.3830      2.00000
     18      -0.0867      0.00000
     19       1.5300      0.00000
     20       2.4856      0.00000
     21       4.6343      0.00000
     22       4.8957      0.00000

 k-point    10 :       0.2500    0.5000    0.0000
  band No.  band energies     occupation 
      1     -17.1163      2.00000
      2     -16.9437      2.00000
      3      -7.5689      2.00000
      4      -7.1170      2.00000
      5      -6.9938      2.00000
      6      -6.3141      2.00000
      7      -6.2002      2.00000
      8      -5.8516      2.00000
      9      -5.3669      2.00000
     10      -5.1202      2.00000
     11      -3.7554      2.00000
     12      -3.3537      2.00000
     13      -3.0804      2.00000
     14      -2.8861      2.00000
     15      -2.7995      2.00000
     16      -2.2329      2.00000
     17      -1.9004      2.00000
     18      -0.1003      0.00000
     19       1.5225      0.00000
     20       3.2645      0.00000
     21       4.7131      0.00000
     22       5.6670      0.00000

 k-point    11 :       0.5000    0.5000    0.0000
  band No.  band energies     occupation 
      1     -17.1255      2.00000
      2     -16.9584      2.00000
      3      -7.8905      2.00000
      4      -7.5926      2.00000
      5      -6.5685      2.00000
      6      -6.5468      2.00000
      7      -6.1354      2.00000
      8      -5.7354      2.00000
      9      -4.7436      2.00000
     10      -4.4942      2.00000
     11      -3.3969      2.00000
     12      -3.2746      2.00000
     13      -3.1336      2.00000
     14      -2.8832      2.00000
     15      -2.8433      2.00000
     16      -2.8212      2.00000
     17      -2.3868      2.00000
     18      -0.0239      0.00000
     19       1.3448      0.00000
     20       2.5662      0.00000
     21       4.6253      0.00000
     22       5.0072      0.00000

 k-point    12 :      -0.2500    0.5000    0.0000
  band No.  band energies     occupation 
      1     -17.1163      2.00000
      2     -16.9437      2.00000
      3      -7.5689      2.00000
      4      -7.1170      2.00000
      5      -6.9938      2.00000
      6      -6.3141      2.00000
      7      -6.2002      2.00000
      8      -5.8516      2.00000
      9      -5.3669      2.00000
     10      -5.1202      2.00000
     11      -3.7554      2.00000
     12      -3.3537      2.00000
     13      -3.0804      2.00000
     14      -2.8861      2.00000
     15      -2.7995      2.00000
     16      -2.2329      2.00000
     17      -1.9004      2.00000
     18      -0.1003      0.00000
     19       1.5225      0.00000
     20       3.2645      0.00000
     21       4.7131      0.00000
     22       5.6670      0.00000

 k-point    13 :      -0.0000   -0.2500    0.0000
  band No.  band energies     occupation 
      1     -17.3493      2.00000
      2     -17.2422      2.00000
      3      -7.7260      2.00000
      4      -7.0762      2.00000
      5      -6.7414      2.00000
      6      -6.6276      2.00000
      7      -6.2711      2.00000
      8      -5.5037      2.00000
      9      -5.1612      2.00000
     10      -4.7384      2.00000
     11      -4.3829      2.00000
     12      -3.0268      2.00000
     13      -2.8484      2.00000
     14      -2.7976      2.00000
     15      -2.1702      2.00000
     16      -2.1110      2.00000
     17      -1.8446      2.00000
     18      -0.0709      0.00000
     19       0.5134      0.00000
     20       3.8013      0.00000
     21       4.1204      0.00000
     22       4.5977      0.00000

 k-point    14 :       0.2500   -0.2500    0.0000
  band No.  band energies     occupation 
      1     -17.3623      2.00000
      2     -17.2568      2.00000
      3      -7.7573      2.00000
      4      -7.0689      2.00000
      5      -6.7445      2.00000
      6      -6.6516      2.00000
      7      -6.2779      2.00000
      8      -5.4346      2.00000
      9      -5.1431      2.00000
     10      -4.6410      2.00000
     11      -4.4516      2.00000
     12      -3.0416      2.00000
     13      -2.8398      2.00000
     14      -2.7753      2.00000
     15      -2.1857      2.00000
     16      -2.1251      2.00000
     17      -1.8666      2.00000
     18      -0.0130      0.00000
     19       0.4394      0.00000
     20       3.7434      0.00000
     21       4.1056      0.00000
     22       4.5786      0.00000

 k-point    15 :       0.5000   -0.2500    0.0000
  band No.  band energies     occupation 
      1     -17.1293      2.00000
      2     -16.9618      2.00000
      3      -7.5181      2.00000
      4      -7.0695      2.00000
      5      -7.0411      2.00000
      6      -6.2967      2.00000
      7      -6.1870      2.00000
      8      -5.8767      2.00000
      9      -5.3871      2.00000
     10      -5.1452      2.00000
     11      -3.7707      2.00000
     12      -3.3182      2.00000
     13      -3.1523      2.00000
     14      -2.9007      2.00000
     15      -2.8177      2.00000
     16      -2.1917      2.00000
     17      -1.9020      2.00000
     18      -0.0713      0.00000
     19       1.4290      0.00000
     20       3.3088      0.00000
     21       4.7476      0.00000
     22       5.6937      0.00000

 k-point    16 :      -0.2500   -0.2500    0.0000
  band No.  band energies     occupation 
      1     -17.1165      2.00000
      2     -16.9439      2.00000
      3      -7.5683      2.00000
      4      -7.1163      2.00000
      5      -6.9944      2.00000
      6      -6.3139      2.00000
      7      -6.2000      2.00000
      8      -5.8520      2.00000
      9      -5.3672      2.00000
     10      -5.1204      2.00000
     11      -3.7555      2.00000
     12      -3.3533      2.00000
     13      -3.0817      2.00000
     14      -2.8857      2.00000
     15      -2.7999      2.00000
     16      -2.2324      2.00000
     17      -1.9004      2.00000
     18      -0.1000      0.00000
     19       1.5214      0.00000
     20       3.2650      0.00000
     21       4.7135      0.00000
     22       5.6673      0.00000


--------------------------------------------------------------------------------------------------------


 soft charge-density along one line, spin component           1
         0         1         2         3         4         5         6         7         8         9
 total charge-density along one line
 
 pseudopotential strength for first ion, spin component:           1
 49.254  51.692  -0.001   0.039  -0.000  -0.002   0.049  -0.000
 51.692  54.254  -0.001   0.041  -0.000  -0.002   0.051  -0.000
 -0.001  -0.001   9.297  -0.000  -0.000  11.524  -0.000  -0.000
  0.039   0.041  -0.000   9.296  -0.000  -0.000  11.523  -0.000
 -0.000  -0.000  -0.000  -0.000   9.297  -0.000  -0.000  11.524
 -0.002  -0.002  11.524  -0.000  -0.000  14.301  -0.000  -0.000
  0.049   0.051  -0.000  11.523  -0.000  -0.000  14.299  -0.000
 -0.000  -0.000  -0.000  -0.000  11.524  -0.000  -0.000  14.301
 total augmentation occupancy for first ion, spin component:           1
  8.577  -6.561   0.092  -3.113   0.002  -0.041   1.310  -0.001
 -6.561   6.494  -0.091   2.921  -0.002   0.043  -1.298   0.001
  0.092  -0.091   3.621  -0.036   0.000  -1.084   0.020  -0.000
 -3.113   2.921  -0.036   3.410  -0.001   0.020  -0.953   0.000
  0.002  -0.002   0.000  -0.001   3.602  -0.000   0.000  -1.074
 -0.041   0.043  -1.084   0.020  -0.000   0.497  -0.008   0.000
  1.310  -1.298   0.020  -0.953   0.000  -0.008   0.443  -0.000
 -0.001   0.001  -0.000   0.000  -1.074   0.000  -0.000   0.489


------------------------ aborting loop because EDIFF is reached ----------------------------------------


    CHARGE:  cpu time    0.0683: real time    0.0683
    FORLOC:  cpu time    0.0134: real time    0.0134
    FORNL :  cpu time    0.0802: real time    0.0802
    STRESS:  cpu time    0.4492: real time    0.4492
    FORCOR:  cpu time    0.1854: real time    0.1854
    FORHAR:  cpu time    0.0369: real time    0.0369
    MIXING:  cpu time    0.0064: real time    0.0064
    OFIELD:  cpu time    0.0000: real time    0.0000

 ---------------------------------------------------------------------------------------------

         DFTD3 V3.0 Rev 1        
 IVDW         = 11
 DF pbe       
 parameters
 VDW_S6       =    1.0000
 VDW_S8       =    0.7220
 VDW_SR       =    1.2170
 rs18     =    1.0000
 alpha6   =   14.0000
 alpha8   =   16.0000
 k1-k3    =   16.0000    1.3333   -4.0000
 VDW_RADIUS   =   50.2022 A
 VDW_CNRADIUS =   21.1671 A
 Edisp (eV)   -1.25150

 E6    (eV) :    -0.3648
 E8    (eV) :    -0.8867
 % E8        : 70.85
    FORVDW:  cpu time    0.0168: real time    0.0168

  FORCE on cell =-STRESS in cart. coord.  units (eV):
  Direction    XX          YY          ZZ          XY          YZ          ZX
  --------------------------------------------------------------------------------------
  Alpha Z    43.23202    43.23202    43.23202
  Ewald    7627.83064  7637.63590 -9159.09735     0.04744   -12.68927    -0.25762
  Hartree  8106.30767  8110.36784 -7928.49673     0.01878    -4.43447    -0.09061
  E(xc)    -141.27824  -141.33333  -141.73928    -0.00030    -0.00710    -0.00016
  Local  -16362.69742-16377.30808 16452.90381    -0.06973    16.42656     0.33413
  n-local   142.83505   143.95855   144.73412     0.00592    -0.52753    -0.01044
  augment    78.70512    78.76970    79.49152     0.00019     0.12053     0.00245
  Kinetic   506.44450   507.53335   509.98893     0.00539     0.48079     0.00980
  Fock        0.00000     0.00000     0.00000     0.00000     0.00000     0.00000
  vdW        -0.76590    -0.71555    -0.23563     0.00027     0.01044     0.00022
  -------------------------------------------------------------------------------------
  Total       0.61344     2.14041     0.78140     0.00796    -0.62004    -0.01224
  in kB       4.37753    15.27404     5.57608     0.05680    -4.42462    -0.08731
  external pressure =        8.41 kB  Pullay stress =        0.00 kB


 VOLUME and BASIS-vectors are now :
 -----------------------------------------------------------------------------
  energy-cutoff  :      300.00
  volume of cell :      224.52
      direct lattice vectors                 reciprocal lattice vectors
     3.636944978 -0.036443352  0.000000000     0.276551047  0.159176935  0.000000000
    -1.786911496  3.104546809  0.000000000     0.003246350  0.323976736  0.000000000
     0.000000000  0.000000000 20.000000000     0.000000000  0.000000000  0.050000000

  length of vectors
     3.637127560  3.582075318 20.000000000     0.319088981  0.323993000  0.050000000


 FORCES acting on ions
    electron-ion (+dipol)            ewald-force                    non-local-force                 convergence-correction
 -----------------------------------------------------------------------------------------------
   -.578E-01 -.287E+01 0.101E+04   0.609E-01 0.301E+01 -.102E+04   -.929E-03 -.382E-01 0.557E+01   -.204E-03 -.124E-02 -.985E-01
   0.477E-01 0.234E+01 -.102E+04   -.497E-01 -.244E+01 0.103E+04   -.504E-03 -.269E-01 -.264E+01   -.122E-05 0.115E-02 0.107E+00
   0.185E-01 0.912E+00 -.580E+03   -.176E-01 -.876E+00 0.574E+03   -.230E-02 -.109E+00 0.672E+01   -.440E-04 -.748E-03 0.152E+00
   -.670E-02 -.312E+00 0.586E+03   0.641E-02 0.310E+00 -.579E+03   0.215E-02 0.101E+00 -.659E+01   0.127E-03 0.186E-03 -.853E-01
 -----------------------------------------------------------------------------------------------
   0.170E-02 0.741E-01 -.313E+01   0.190E-13 -.794E-14 -.114E-12   -.159E-02 -.735E-01 0.305E+01   -.122E-03 -.653E-03 0.758E-01
 
 
 POSITION                                       TOTAL-FORCE (eV/Angst)
 -----------------------------------------------------------------------------------
     -0.89327      1.55215      3.36693         0.001962      0.100549     -0.170919
     -0.89327      1.55215      7.71448        -0.002445     -0.124297      0.197615
      0.91468      0.50515      6.20974        -0.001479     -0.073598      0.102577
      0.93572      2.56270      4.71353         0.001961      0.097346     -0.129273
 -----------------------------------------------------------------------------------
    total drift:                               -0.000011     -0.000086     -0.003843


--------------------------------------------------------------------------------------------------------



  FREE ENERGIE OF THE ION-ELECTRON SYSTEM (eV)
  ---------------------------------------------------
  free  energy   TOTEN  =       -17.77329464 eV

  energy  without entropy=      -17.77329464  energy(sigma->0) =      -17.77329464
 


--------------------------------------------------------------------------------------------------------


    POTLOK:  cpu time    0.1976: real time    0.1976


--------------------------------------------------------------------------------------------------------


 Quasi-Newton relaxation of ions (Broydens 2nd method)
  g(Force)  = 0.656E-02   g(Stress)= 0.454E-02

 Reset! Starting new Quasi-Newton update for ions 


--------------------------------------------------------------------------------------------------------


    WAVPRE:  cpu time    0.6522: real time    0.6524
    FEWALD:  cpu time    0.0001: real time    0.0001
    GENKIN:  cpu time    0.0165: real time    0.0165
    ORTHCH:  cpu time    0.0153: real time    0.0153
     LOOP+:  cpu time   12.0789: real time   12.0802


--------------------------------------- Iteration      2(   1)  ---------------------------------------


    POTLOK:  cpu time    0.1959: real time    0.1959
    SETDIJ:  cpu time    0.0057: real time    0.0057
     EDDAV:  cpu time    0.6003: real time    0.6022
       DOS:  cpu time    0.0002: real time    0.0002
    CHARGE:  cpu time    0.0675: real time    0.0675
    MIXING:  cpu time    0.0060: real time    0.0060
    --------------------------------------------
      LOOP:  cpu time    0.8756: real time    0.8775

 eigenvalue-minimisations  :   704
 total energy-change (2. order) :-0.2741353E-01  (-0.1560384E+00)
 number of electron      33.9999998 magnetization 
 augmentation part        3.8867577 magnetization 

 DIPCOR: dipole corrections for dipol
 direction  3 min pos   199,
 dipolmoment           0.000000      0.000000     -0.036979 electrons x Angstroem
 Tr[quadrupol]       -77.937268

 energy correction for charged system         0.000000 eV
 dipol+quadrupol energy correction           -0.000547 eV
 added-field ion interaction         -1.011848 eV  (added to PSCEN)


 Broyden mixing:
  rms(total) = 0.92328E-01    rms(broyden)= 0.92285E-01
  rms(prec ) = 0.97520E-01
  weight for this iteration     100.00

 Free energy of the ion-electron system (eV)
  ---------------------------------------------------
  alpha Z        PSCENC =        41.90212162
  Ewald energy   TEWEN  =      6025.90067860
[...]
  band No.  band energies     occupation 
      1     -17.1150      2.00000
      2     -16.9543      2.00000
      3      -7.8457      2.00000
      4      -7.5518      2.00000
      5      -6.5169      2.00000
      6      -6.5035      2.00000
      7      -6.1288      2.00000
      8      -5.6822      2.00000
      9      -4.7703      2.00000
     10      -4.5032      2.00000
     11      -3.4220      2.00000
     12      -3.3334      2.00000
     13      -3.1479      2.00000
     14      -2.9244      2.00000
     15      -2.8622      2.00000
     16      -2.8083      2.00000
     17      -2.4422      2.00000
     18      -0.1410      0.00000
     19       1.2667      0.00000
     20       2.4459      0.00000
     21       4.5498      0.00000
     22       4.9456      0.00000

 k-point     4 :      -0.2500   -0.0000    0.0000
  band No.  band energies     occupation 
      1     -17.3453      2.00000
      2     -17.2471      2.00000
      3      -7.7271      2.00000
      4      -7.0235      2.00000
      5      -6.6713      2.00000
      6      -6.6174      2.00000
      7      -6.2564      2.00000
      8      -5.3857      2.00000
      9      -5.1463      2.00000
     10      -4.6174      2.00000
     11      -4.4900      2.00000
     12      -3.0924      2.00000
     13      -2.8702      2.00000
     14      -2.8146      2.00000
     15      -2.2514      2.00000
     16      -2.1621      2.00000
     17      -1.9275      2.00000
     18      -0.1278      0.00000
     19       0.3394      0.00000
     20       3.7028      0.00000
     21       4.0820      0.00000
     22       4.5986      0.00000

 k-point     5 :       0.0000    0.2500    0.0000
  band No.  band energies     occupation 
      1     -17.3305      2.00000
      2     -17.2290      2.00000
      3      -7.6847      2.00000
      4      -7.0092      2.00000
      5      -6.7210      2.00000
      6      -6.6108      2.00000
      7      -6.2405      2.00000
      8      -5.5128      2.00000
      9      -5.1412      2.00000
     10      -4.7195      2.00000
     11      -4.3757      2.00000
     12      -3.0673      2.00000
     13      -2.8765      2.00000
     14      -2.8229      2.00000
     15      -2.2031      2.00000
     16      -2.1756      2.00000
     17      -1.9090      2.00000
     18      -0.1414      0.00000
     19       0.3785      0.00000
     20       3.7423      0.00000
     21       4.1091      0.00000
     22       4.6377      0.00000

 k-point     6 :       0.2500    0.2500    0.0000
  band No.  band energies     occupation 
      1     -17.1034      2.00000
      2     -16.9362      2.00000
      3      -7.5228      2.00000
      4      -7.0808      2.00000
      5      -6.9552      2.00000
      6      -6.2931      2.00000
      7      -6.1807      2.00000
      8      -5.8513      2.00000
      9      -5.3588      2.00000
     10      -5.1112      2.00000
     11      -3.7725      2.00000
     12      -3.3732      2.00000
     13      -3.0786      2.00000
     14      -2.9078      2.00000
     15      -2.8140      2.00000
     16      -2.2676      2.00000
     17      -1.9568      2.00000
     18      -0.1890      0.00000
     19       1.3933      0.00000
     20       3.1634      0.00000
     21       4.6373      0.00000
     22       5.5700      0.00000

 k-point     7 :       0.5000    0.2500    0.0000
  band No.  band energies     occupation 
      1     -17.1183      2.00000
      2     -16.9574      2.00000
      3      -7.4736      2.00000
      4      -7.0285      2.00000
      5      -6.9784      2.00000
      6      -6.2687      2.00000
      7      -6.1545      2.00000
      8      -5.8729      2.00000
      9      -5.3821      2.00000
     10      -5.1172      2.00000
     11      -3.8152      2.00000
     12      -3.3348      2.00000
     13      -3.1860      2.00000
     14      -2.9401      2.00000
     15      -2.8602      2.00000
     16      -2.2325      2.00000
     17      -1.9564      2.00000
     18      -0.1810      0.00000
     19       1.3438      0.00000
     20       3.1864      0.00000
     21       4.7099      0.00000
     22       5.6416      0.00000

 k-point     8 :      -0.2500    0.2500    0.0000
  band No.  band energies     occupation 
      1     -17.3451      2.00000
      2     -17.2469      2.00000
      3      -7.7265      2.00000
      4      -7.0232      2.00000
      5      -6.6720      2.00000
      6      -6.6173      2.00000
      7      -6.2562      2.00000
      8      -5.3875      2.00000
      9      -5.1463      2.00000
     10      -4.6186      2.00000
     11      -4.4884      2.00000
     12      -3.0921      2.00000
     13      -2.8704      2.00000
     14      -2.8147      2.00000
     15      -2.2507      2.00000
     16      -2.1624      2.00000
     17      -1.9273      2.00000
     18      -0.1281      0.00000
     19       0.3400      0.00000
     20       3.7035      0.00000
     21       4.0824      0.00000
     22       4.5992      0.00000

 k-point     9 :       0.0000    0.5000    0.0000
  band No.  band energies     occupation 
      1     -17.0863      2.00000
      2     -16.9126      2.00000
      3      -7.8112      2.00000
      4      -7.5359      2.00000
      5      -6.5794      2.00000
      6      -6.5504      2.00000
      7      -6.1432      2.00000
      8      -5.8391      2.00000
      9      -4.6823      2.00000
     10      -4.4992      2.00000
     11      -3.4505      2.00000
     12      -3.2519      2.00000
     13      -3.1858      2.00000
     14      -2.8415      2.00000
     15      -2.8399      2.00000
     16      -2.7522      2.00000
     17      -2.4125      2.00000
     18      -0.1536      0.00000
     19       1.3677      0.00000
     20       2.3976      0.00000
     21       4.5049      0.00000
     22       4.8002      0.00000

 k-point    10 :       0.2500    0.5000    0.0000
  band No.  band energies     occupation 
      1     -17.1031      2.00000
      2     -16.9358      2.00000
      3      -7.5235      2.00000
      4      -7.0815      2.00000
      5      -6.9549      2.00000
      6      -6.2935      2.00000
      7      -6.1811      2.00000
      8      -5.8508      2.00000
      9      -5.3585      2.00000
     10      -5.1112      2.00000
     11      -3.7721      2.00000
     12      -3.3737      2.00000
     13      -3.0770      2.00000
     14      -2.9080      2.00000
     15      -2.8126      2.00000
     16      -2.2681      2.00000
     17      -1.9568      2.00000
     18      -0.1891      0.00000
     19       1.3941      0.00000
     20       3.1631      0.00000
     21       4.6361      0.00000
     22       5.5691      0.00000

 k-point    11 :       0.5000    0.5000    0.0000
  band No.  band energies     occupation 
      1     -17.1146      2.00000
      2     -16.9537      2.00000
      3      -7.8453      2.00000
      4      -7.5517      2.00000
      5      -6.5173      2.00000
      6      -6.5046      2.00000
      7      -6.1288      2.00000
      8      -5.6844      2.00000
      9      -4.7692      2.00000
     10      -4.5032      2.00000
     11      -3.4226      2.00000
     12      -3.3322      2.00000
     13      -3.1489      2.00000
     14      -2.9236      2.00000
     15      -2.8614      2.00000
     16      -2.8070      2.00000
     17      -2.4418      2.00000
     18      -0.1412      0.00000
     19       1.2682      0.00000
     20       2.4453      0.00000
     21       4.5494      0.00000
     22       4.9435      0.00000

 k-point    12 :      -0.2500    0.5000    0.0000
  band No.  band energies     occupation 
      1     -17.1031      2.00000
      2     -16.9358      2.00000
      3      -7.5235      2.00000
      4      -7.0815      2.00000
      5      -6.9549      2.00000
      6      -6.2935      2.00000
      7      -6.1811      2.00000
      8      -5.8508      2.00000
      9      -5.3585      2.00000
     10      -5.1112      2.00000
     11      -3.7721      2.00000
     12      -3.3737      2.00000
     13      -3.0770      2.00000
     14      -2.9080      2.00000
     15      -2.8126      2.00000
     16      -2.2681      2.00000
     17      -1.9568      2.00000
     18      -0.1891      0.00000
     19       1.3941      0.00000
     20       3.1631      0.00000
     21       4.6361      0.00000
     22       5.5691      0.00000

 k-point    13 :      -0.0000   -0.2500    0.0000
  band No.  band energies     occupation 
      1     -17.3305      2.00000
      2     -17.2290      2.00000
      3      -7.6847      2.00000
      4      -7.0092      2.00000
      5      -6.7210      2.00000
      6      -6.6108      2.00000
      7      -6.2405      2.00000
      8      -5.5128      2.00000
      9      -5.1412      2.00000
     10      -4.7195      2.00000
     11      -4.3757      2.00000
     12      -3.0673      2.00000
     13      -2.8765      2.00000
     14      -2.8229      2.00000
     15      -2.2031      2.00000
     16      -2.1756      2.00000
     17      -1.9090      2.00000
     18      -0.1414      0.00000
     19       0.3785      0.00000
     20       3.7423      0.00000
     21       4.1091      0.00000
     22       4.6377      0.00000

 k-point    14 :       0.2500   -0.2500    0.0000
  band No.  band energies     occupation 
      1     -17.3451      2.00000
      2     -17.2469      2.00000
      3      -7.7265      2.00000
      4      -7.0232      2.00000
      5      -6.6720      2.00000
      6      -6.6173      2.00000
      7      -6.2562      2.00000
      8      -5.3875      2.00000
      9      -5.1463      2.00000
     10      -4.6186      2.00000
     11      -4.4884      2.00000
     12      -3.0921      2.00000
     13      -2.8704      2.00000
     14      -2.8147      2.00000
     15      -2.2507      2.00000
     16      -2.1624      2.00000
     17      -1.9273      2.00000
     18      -0.1281      0.00000
     19       0.3400      0.00000
     20       3.7035      0.00000
     21       4.0824      0.00000
     22       4.5992      0.00000

 k-point    15 :       0.5000   -0.2500    0.0000
  band No.  band energies     occupation 
      1     -17.1183      2.00000
      2     -16.9574      2.00000
      3      -7.4736      2.00000
      4      -7.0285      2.00000
      5      -6.9784      2.00000
      6      -6.2687      2.00000
      7      -6.1545      2.00000
      8      -5.8729      2.00000
      9      -5.3821      2.00000
     10      -5.1172      2.00000
     11      -3.8152      2.00000
     12      -3.3348      2.00000
     13      -3.1860      2.00000
     14      -2.9401      2.00000
     15      -2.8602      2.00000
     16      -2.2325      2.00000
     17      -1.9564      2.00000
     18      -0.1810      0.00000
     19       1.3438      0.00000
     20       3.1864      0.00000
     21       4.7099      0.00000
     22       5.6416      0.00000

 k-point    16 :      -0.2500   -0.2500    0.0000
  band No.  band energies     occupation 
      1     -17.1034      2.00000
      2     -16.9362      2.00000
      3      -7.5228      2.00000
      4      -7.0808      2.00000
      5      -6.9552      2.00000
      6      -6.2931      2.00000
      7      -6.1807      2.00000
      8      -5.8513      2.00000
      9      -5.3588      2.00000
     10      -5.1112      2.00000
     11      -3.7725      2.00000
     12      -3.3732      2.00000
     13      -3.0786      2.00000
     14      -2.9078      2.00000
     15      -2.8140      2.00000
     16      -2.2676      2.00000
     17      -1.9568      2.00000
     18      -0.1890      0.00000
     19       1.3933      0.00000
     20       3.1634      0.00000
     21       4.6373      0.00000
     22       5.5700      0.00000


--------------------------------------------------------------------------------------------------------


 soft charge-density along one line, spin component           1
         0         1         2         3         4         5         6         7         8         9
 total charge-density along one line
 
 pseudopotential strength for first ion, spin component:           1
 49.257  51.695  -0.001   0.038  -0.000  -0.001   0.047  -0.000
 51.695  54.257  -0.001   0.040  -0.000  -0.001   0.050  -0.000
 -0.001  -0.001   9.297  -0.000  -0.000  11.524  -0.000  -0.000
  0.038   0.040  -0.000   9.296  -0.000  -0.000  11.523  -0.000
 -0.000  -0.000  -0.000  -0.000   9.297  -0.000  -0.000  11.524
 -0.001  -0.001  11.524  -0.000  -0.000  14.300  -0.000  -0.000
  0.047   0.050  -0.000  11.523  -0.000  -0.000  14.299  -0.000
 -0.000  -0.000  -0.000  -0.000  11.524  -0.000  -0.000  14.300
 total augmentation occupancy for first ion, spin component:           1
  8.387  -6.363   0.079  -3.055   0.002  -0.029   1.275  -0.001
 -6.363   6.292  -0.077   2.865  -0.002   0.031  -1.264   0.001
  0.079  -0.077   3.559  -0.028  -0.000  -1.044   0.016   0.000
 -3.055   2.865  -0.028   3.380  -0.001   0.016  -0.933   0.000
  0.002  -0.002  -0.000  -0.001   3.577   0.000   0.000  -1.055
 -0.029   0.031  -1.044   0.016   0.000   0.475  -0.005   0.000
  1.275  -1.264   0.016  -0.933   0.000  -0.005   0.429  -0.000
 -0.001   0.001   0.000   0.000  -1.055   0.000  -0.000   0.476


------------------------ aborting loop because EDIFF is reached ----------------------------------------


    CHARGE:  cpu time    0.0700: real time    0.0700
    FORLOC:  cpu time    0.0149: real time    0.0149
    FORNL :  cpu time    0.0937: real time    0.0937
    STRESS:  cpu time    0.4818: real time    0.4819
    FORCOR:  cpu time    0.1979: real time    0.1979
    FORHAR:  cpu time    0.0393: real time    0.0393
    MIXING:  cpu time    0.0063: real time    0.0063
    OFIELD:  cpu time    0.0000: real time    0.0000

 ---------------------------------------------------------------------------------------------

         DFTD3 V3.0 Rev 1        
 Edisp (eV)   -1.24532

 E6    (eV) :    -0.3624
 E8    (eV) :    -0.8829
 % E8        : 70.90
    FORVDW:  cpu time    0.0168: real time    0.0168

  FORCE on cell =-STRESS in cart. coord.  units (eV):
  Direction    XX          YY          ZZ          XY          YZ          ZX
  --------------------------------------------------------------------------------------
  Alpha Z    43.03314    43.03314    43.03314
  Ewald    7539.16828  7536.73117 -9056.82512    -0.01837    -9.12107    -0.20739
  Hartree  8018.13309  8018.12801 -7835.83084    -0.00393    -3.33625    -0.07609
  E(xc)    -141.09693  -141.17497  -141.53357    -0.00034    -0.02268    -0.00049
  Local  -16184.93772-16184.30769 16259.06220     0.01458    11.74078     0.26750
  n-local   142.04888   142.68902   143.60603     0.00263    -0.07446    -0.00202
  augment    78.70941    79.02830    79.53266     0.00129     0.06072     0.00145
  Kinetic   505.66366   507.68050   508.99625     0.00830     0.60201     0.01310
  Fock        0.00000     0.00000     0.00000     0.00000     0.00000     0.00000
  vdW        -0.79096    -0.71327    -0.28124     0.00034     0.01694     0.00038
  -------------------------------------------------------------------------------------
  Total      -0.06916     1.09421    -0.24048     0.00449    -0.13400    -0.00356
  in kB      -0.49128     7.77238    -1.70816     0.03190    -0.95183    -0.02527
  external pressure =        1.86 kB  Pullay stress =        0.00 kB


 VOLUME and BASIS-vectors are now :
 -----------------------------------------------------------------------------
  energy-cutoff  :      300.00
  volume of cell :      225.56
      direct lattice vectors                 reciprocal lattice vectors
     3.653753023 -0.036443352  0.000000000     0.275278853  0.159176935  0.000000000
    -1.795169661  3.104546809  0.000000000     0.003231417  0.323976736  0.000000000
     0.000000000  0.000000000 20.000000000     0.000000000  0.000000000  0.050000000

  length of vectors
     3.653934766  3.586202030 20.000000000     0.317987018  0.323992851  0.050000000


 FORCES acting on ions
    electron-ion (+dipol)            ewald-force                    non-local-force                 convergence-correction
 -----------------------------------------------------------------------------------------------
   -.521E-01 -.232E+01 0.101E+04   0.562E-01 0.250E+01 -.101E+04   -.281E-02 -.125E+00 0.568E+01   -.694E-03 -.297E-01 -.358E-01
   0.337E-01 0.149E+01 -.102E+04   -.351E-01 -.155E+01 0.102E+04   0.606E-03 0.192E-01 -.271E+01   0.339E-03 0.145E-01 -.381E-01
   0.195E-01 0.842E+00 -.576E+03   -.163E-01 -.685E+00 0.570E+03   -.317E-02 -.145E+00 0.665E+01   -.240E-03 -.174E-01 -.208E+00
   0.319E-02 0.178E+00 0.581E+03   -.488E-02 -.266E+00 -.575E+03   0.155E-02 0.663E-01 -.650E+01   0.379E-03 0.276E-01 -.292E+00
 -----------------------------------------------------------------------------------------------
   0.421E-02 0.187E+00 -.255E+01   -.520E-14 -.311E-14 0.000E+00   -.382E-02 -.185E+00 0.311E+01   -.215E-03 -.495E-02 -.573E+00
 
 
 POSITION                                       TOTAL-FORCE (eV/Angst)
 -----------------------------------------------------------------------------------
     -0.89689      1.57611      3.34533         0.000474      0.022795     -0.003522
     -0.89799      1.52394      7.73711        -0.000440     -0.023459      0.020014
      0.91877      0.49849      6.21543        -0.000184     -0.003044     -0.030312
      0.94028      2.57362      4.70680         0.000150      0.003708      0.013820
 -----------------------------------------------------------------------------------
    total drift:                                0.000174     -0.002846     -0.006830


--------------------------------------------------------------------------------------------------------



  FREE ENERGIE OF THE ION-ELECTRON SYSTEM (eV)
  ---------------------------------------------------
  free  energy   TOTEN  =       -17.78411664 eV

  energy  without entropy=      -17.78411664  energy(sigma->0) =      -17.78411664
 
 d Force = 0.8702746E-04[-0.178E-04, 0.192E-03]  d Energy = 0.8000408E-04 0.702E-05
 d Force = 0.1985792E+01[ 0.199E+01, 0.199E+01]  d Ewald  = 0.1881027E+00 0.180E+01


--------------------------------------------------------------------------------------------------------


    POTLOK:  cpu time    0.2064: real time    0.2064


--------------------------------------------------------------------------------------------------------


 Quasi-Newton relaxation of ions (Broydens 2nd method)
  g(Force)  = 0.126E-03   g(Stress)= 0.577E-04

 retain information from N=  2 steps
 eigenvalues of (default step * inverse Hessian matrix)
  average eigenvalue of G=   2.1188
 eigenvalue spectrum of G is  3.6982  0.5395


--------------------------------------------------------------------------------------------------------


  
 reached required accuracy - stopping structural energy minimisation
 writing wavefunctions
     LOOP+:  cpu time    3.8920: real time    3.8928
    4ORBIT:  cpu time    0.0000: real time    0.0000

 total amount of memory used by VASP MPI-rank0    81477. kBytes
=======================================================================

   base      :      30000. kBytes
   nonl-proj :      18584. kBytes
   fftplans  :       8017. kBytes
   grid      :      17149. kBytes
   one-center:         62. kBytes
   wavefun   :       7665. kBytes
 
  
  
 General timing and accounting informations for this job:
 ========================================================
  
                  Total CPU time used (sec):       37.876
                            User time (sec):       37.228
                          System time (sec):        0.648
                         Elapsed time (sec):       38.153
  
                   Maximum memory used (kb):      193668.
                   Average memory used (kb):           0.
  
                          Minor page faults:        28939
                          Major page faults:            0
                 Voluntary context switches:           64
