    4    4  100    1
  0.5716472E+02  0.3633407E-09  0.3633403E-09  0.2000000E-08  0.5000000E-15
  1.000000000000000E-004
  CAR 
 unknown system                          
     34     16     22
 
  0.0000000E+00  0.0000000E+00  0.0000000E+00  0.6250000E-01
    1      -17.614630   1.000000
    2      -17.478281   1.000000
    3       -8.102993   1.000000
    4       -6.861704   1.000000
    5       -6.861697   1.000000
    6       -6.853916   1.000000
    7       -5.842334   1.000000
    8       -5.842328   1.000000
    9       -4.436500   1.000000
   10       -4.436485   1.000000
   11       -3.806272   1.000000
   12       -2.839907   1.000000
   13       -2.839906   1.000000
   14       -2.743663   1.000000
   15       -2.152293   1.000000
   16       -2.152282   1.000000
   17       -2.069017   1.000000
   18       -0.269575   0.000000
   19       -0.269570   0.000000
   20        2.140246   0.000000
   21        3.212563   0.000000
   22        3.835400   0.000000
 
  0.2500000E+00  0.7125649E-17  0.0000000E+00  0.6250000E-01
    1      -17.358726   1.000000
    2      -17.268294   1.000000
    3       -7.730390   1.000000
    4       -7.042659   1.000000
    5       -6.735181   1.000000
    6       -6.618535   1.000000
    7       -6.271945   1.000000
    8       -5.502960   1.000000
    9       -5.138990   1.000000
   10       -4.704428   1.000000
   11       -4.451538   1.000000
   12       -3.099763   1.000000
   13       -2.912894   1.000000
   14       -2.903507   1.000000
   15       -2.264920   1.000000
   16       -2.238350   1.000000
   17       -1.965273   1.000000
   18       -0.195209   0.000000
   19        0.284655   0.000000
   20        3.605016   0.000000
   21        3.980087   0.000000
   22        4.489755   0.000000
 
  0.5000000E+00  0.1425130E-16  0.0000000E+00  0.6250000E-01
    1      -17.133189   1.000000
    2      -16.989484   1.000000
    3       -7.838754   1.000000
    4       -7.540571   1.000000
    5       -6.556996   1.000000
    6       -6.535446   1.000000
    7       -6.124264   1.000000
    8       -5.803552   1.000000
    9       -4.739652   1.000000
   10       -4.520315   1.000000
   11       -3.502883   1.000000
   12       -3.317272   1.000000
   13       -3.236458   1.000000
   14       -2.990019   1.000000
   15       -2.928446   1.000000
   16       -2.916703   1.000000
   17       -2.451956   1.000000
   18       -0.212438   0.000000
   19        1.231856   0.000000
   20        2.348938   0.000000
   21        4.545163   0.000000
   22        4.836112   0.000000
 
 -0.2500000E+00 -0.7125649E-17  0.0000000E+00  0.6250000E-01
    1      -17.358726   1.000000
    2      -17.268294   1.000000
    3       -7.730390   1.000000
    4       -7.042659   1.000000
    5       -6.735181   1.000000
    6       -6.618535   1.000000
    7       -6.271945   1.000000
    8       -5.502960   1.000000
    9       -5.138990   1.000000
   10       -4.704428   1.000000
   11       -4.451538   1.000000
   12       -3.099763   1.000000
   13       -2.912894   1.000000
   14       -2.903507   1.000000
   15       -2.264920   1.000000
   16       -2.238350   1.000000
   17       -1.965273   1.000000
   18       -0.195209   0.000000
   19        0.284655   0.000000
   20        3.605016   0.000000
   21        3.980087   0.000000
   22        4.489755   0.000000
 
  0.3737887E-18  0.2500000E+00  0.0000000E+00  0.6250000E-01
    1      -17.358725   1.000000
    2      -17.268293   1.000000
    3       -7.730387   1.000000
    4       -7.042657   1.000000
    5       -6.735187   1.000000
    6       -6.618536   1.000000
    7       -6.271944   1.000000
    8       -5.502968   1.000000
    9       -5.138988   1.000000
   10       -4.704431   1.000000
   11       -4.451530   1.000000
   12       -3.099761   1.000000
   13       -2.912896   1.000000
   14       -2.903505   1.000000
   15       -2.264917   1.000000
   16       -2.238351   1.000000
   17       -1.965272   1.000000
   18       -0.195207   0.000000
   19        0.284654   0.000000
   20        3.605016   0.000000
   21        3.980089   0.000000
   22        4.489757   0.000000
 
  0.2500000E+00  0.2500000E+00  0.0000000E+00  0.6250000E-01
    1      -17.136139   1.000000
    2      -16.991820   1.000000
    3       -7.521744   1.000000
    4       -7.065733   1.000000
    5       -6.996804   1.000000
    6       -6.298825   1.000000
    7       -6.200570   1.000000
    8       -5.867651   1.000000
    9       -5.363448   1.000000
   10       -5.132125   1.000000
   11       -3.806059   1.000000
   12       -3.418688   1.000000
   13       -3.189316   1.000000
   14       -2.976020   1.000000
   15       -2.923055   1.000000
   16       -2.327783   1.000000
   17       -2.011904   1.000000
   18       -0.263885   0.000000
   19        1.311106   0.000000
   20        3.073336   0.000000
   21        4.596232   0.000000
   22        5.554999   0.000000
 
  0.5000000E+00  0.2500000E+00  0.0000000E+00  0.6250000E-01
    1      -17.136139   1.000000
    2      -16.991821   1.000000
    3       -7.521744   1.000000
    4       -7.065732   1.000000
    5       -6.996801   1.000000
    6       -6.298824   1.000000
    7       -6.200567   1.000000
    8       -5.867651   1.000000
    9       -5.363449   1.000000
   10       -5.132123   1.000000
   11       -3.806063   1.000000
   12       -3.418688   1.000000
   13       -3.189320   1.000000
   14       -2.976022   1.000000
   15       -2.923058   1.000000
   16       -2.327783   1.000000
   17       -2.011905   1.000000
   18       -0.263886   0.000000
   19        1.311108   0.000000
   20        3.073335   0.000000
   21        4.596238   0.000000
   22        5.555005   0.000000
 
 -0.2500000E+00  0.2500000E+00  0.0000000E+00  0.6250000E-01
    1      -17.358726   1.000000
    2      -17.268294   1.000000
    3       -7.730390   1.000000
    4       -7.042660   1.000000
    5       -6.735180   1.000000
    6       -6.618536   1.000000
    7       -6.271945   1.000000
    8       -5.502957   1.000000
    9       -5.138990   1.000000
   10       -4.704428   1.000000
   11       -4.451540   1.000000
   12       -3.099763   1.000000
   13       -2.912892   1.000000
   14       -2.903507   1.000000
   15       -2.264921   1.000000
   16       -2.238348   1.000000
   17       -1.965273   1.000000
   18       -0.195209   0.000000
   19        0.284655   0.000000
   20        3.605016   0.000000
   21        3.980087   0.000000
   22        4.489755   0.000000
 
  0.7475774E-18  0.5000000E+00  0.0000000E+00  0.6250000E-01
    1      -17.133188   1.000000
    2      -16.989482   1.000000
    3       -7.838752   1.000000
    4       -7.540570   1.000000
    5       -6.557004   1.000000
    6       -6.535447   1.000000
    7       -6.124266   1.000000
    8       -5.803561   1.000000
    9       -4.739646   1.000000
   10       -4.520315   1.000000
   11       -3.502882   1.000000
   12       -3.317265   1.000000
   13       -3.236460   1.000000
   14       -2.990015   1.000000
   15       -2.928447   1.000000
   16       -2.916697   1.000000
   17       -2.451954   1.000000
   18       -0.212436   0.000000
   19        1.231855   0.000000
   20        2.348937   0.000000
   21        4.545157   0.000000
   22        4.836104   0.000000
 
  0.2500000E+00  0.5000000E+00  0.0000000E+00  0.6250000E-01
    1      -17.136139   1.000000
    2      -16.991820   1.000000
    3       -7.521745   1.000000
    4       -7.065733   1.000000
    5       -6.996803   1.000000
    6       -6.298826   1.000000
    7       -6.200568   1.000000
    8       -5.867650   1.000000
    9       -5.363447   1.000000
   10       -5.132125   1.000000
   11       -3.806059   1.000000
   12       -3.418688   1.000000
   13       -3.189315   1.000000
   14       -2.976019   1.000000
   15       -2.923055   1.000000
   16       -2.327785   1.000000
   17       -2.011905   1.000000
   18       -0.263885   0.000000
   19        1.311108   0.000000
   20        3.073335   0.000000
   21        4.596232   0.000000
   22        5.554999   0.000000
 
  0.5000000E+00  0.5000000E+00  0.0000000E+00  0.6250000E-01
    1      -17.133189   1.000000
    2      -16.989484   1.000000
    3       -7.838755   1.000000
    4       -7.540572   1.000000
    5       -6.556995   1.000000
    6       -6.535446   1.000000
    7       -6.124264   1.000000
    8       -5.803549   1.000000
    9       -4.739653   1.000000
   10       -4.520316   1.000000
   11       -3.502882   1.000000
   12       -3.317273   1.000000
   13       -3.236457   1.000000
   14       -2.990021   1.000000
   15       -2.928443   1.000000
   16       -2.916702   1.000000
   17       -2.451958   1.000000
   18       -0.212438   0.000000
   19        1.231858   0.000000
   20        2.348937   0.000000
   21        4.545165   0.000000
   22        4.836109   0.000000
 
 -0.2500000E+00  0.5000000E+00  0.0000000E+00  0.6250000E-01
    1      -17.136139   1.000000
    2      -16.991820   1.000000
    3       -7.521745   1.000000
    4       -7.065733   1.000000
    5       -6.996803   1.000000
    6       -6.298826   1.000000
    7       -6.200568   1.000000
    8       -5.867650   1.000000
    9       -5.363447   1.000000
   10       -5.132125   1.000000
   11       -3.806059   1.000000
   12       -3.418688   1.000000
   13       -3.189315   1.000000
   14       -2.976019   1.000000
   15       -2.923055   1.000000
   16       -2.327785   1.000000
   17       -2.011905   1.000000
   18       -0.263885   0.000000
   19        1.311108   0.000000
   20        3.073335   0.000000
   21        4.596232   0.000000
   22        5.554999   0.000000
 
 -0.3737887E-18 -0.2500000E+00  0.0000000E+00  0.6250000E-01
    1      -17.358725   1.000000
    2      -17.268293   1.000000
    3       -7.730387   1.000000
    4       -7.042657   1.000000
    5       -6.735187   1.000000
    6       -6.618536   1.000000
    7       -6.271944   1.000000
    8       -5.502968   1.000000
    9       -5.138988   1.000000
   10       -4.704431   1.000000
   11       -4.451530   1.000000
   12       -3.099761   1.000000
   13       -2.912896   1.000000
   14       -2.903505   1.000000
   15       -2.264917   1.000000
   16       -2.238351   1.000000
   17       -1.965272   1.000000
   18       -0.195207   0.000000
   19        0.284654   0.000000
   20        3.605016   0.000000
   21        3.980089   0.000000
   22        4.489757   0.000000
 
  0.2500000E+00 -0.2500000E+00  0.0000000E+00  0.6250000E-01
    1      -17.358726   1.000000
    2      -17.268294   1.000000
    3       -7.730390   1.000000
    4       -7.042660   1.000000
    5       -6.735180   1.000000
    6       -6.618536   1.000000
    7       -6.271945   1.000000
    8       -5.502957   1.000000
    9       -5.138990   1.000000
   10       -4.704428   1.000000
   11       -4.451540   1.000000
   12       -3.099763   1.000000
   13       -2.912892   1.000000
   14       -2.903507   1.000000
   15       -2.264921   1.000000
   16       -2.238348   1.000000
   17       -1.965273   1.000000
   18       -0.195209   0.000000
   19        0.284655   0.000000
   20        3.605016   0.000000
   21        3.980087   0.000000
   22        4.489755   0.000000
 
  0.5000000E+00 -0.2500000E+00  0.0000000E+00  0.6250000E-01
    1      -17.136139   1.000000
    2      -16.991821   1.000000
    3       -7.521744   1.000000
    4       -7.065732   1.000000
    5       -6.996801   1.000000
    6       -6.298824   1.000000
    7       -6.200567   1.000000
    8       -5.867651   1.000000
    9       -5.363449   1.000000
   10       -5.132123   1.000000
   11       -3.806063   1.000000
   12       -3.418688   1.000000
   13       -3.189320   1.000000
   14       -2.976022   1.000000
   15       -2.923058   1.000000
   16       -2.327783   1.000000
   17       -2.011905   1.000000
   18       -0.263886   0.000000
   19        1.311108   0.000000
   20        3.073335   0.000000
   21        4.596238   0.000000
   22        5.555005   0.000000
 
 -0.2500000E+00 -0.2500000E+00  0.0000000E+00  0.6250000E-01
    1      -17.136139   1.000000
    2      -16.991820   1.000000
    3       -7.521744   1.000000
    4       -7.065733   1.000000
    5       -6.996804   1.000000
    6       -6.298825   1.000000
    7       -6.200570   1.000000
    8       -5.867651   1.000000
    9       -5.363448   1.000000
   10       -5.132125   1.000000
   11       -3.806059   1.000000
   12       -3.418688   1.000000
   13       -3.189316   1.000000
   14       -2.976020   1.000000
   15       -2.923055   1.000000
   16       -2.327783   1.000000
   17       -2.011904   1.000000
   18       -0.263885   0.000000
   19        1.311106   0.000000
   20        3.073336   0.000000
   21        4.596232   0.000000
   22        5.554999   0.000000
