       N       E                     dE             d eps       ncg     rms          rms(c)
DAV:   1     0.223000471108E+03    0.22300E+03   -0.10063E+04   704   0.795E+02
DAV:   2     0.290811365343E+01   -0.22009E+03   -0.21062E+03  1062   0.204E+02
DAV:   3    -0.170007467302E+02   -0.19909E+02   -0.19571E+02   860   0.702E+01
DAV:   4    -0.174524838174E+02   -0.45174E+00   -0.44984E+00   832   0.119E+01
DAV:   5    -0.174641900158E+02   -0.11706E-01   -0.11703E-01   842   0.185E+00    0.159E+01
DAV:   6    -0.166111787934E+02    0.85301E+00   -0.23153E+00   880   0.134E+01    0.893E+00
DAV:   7    -0.166173753383E+02   -0.61965E-02   -0.56671E-01   806   0.772E+00    0.315E+00
DAV:   8    -0.166716420174E+02   -0.54267E-01   -0.43212E-01   836   0.951E+00    0.253E+00
DAV:   9    -0.165614678633E+02    0.11017E+00   -0.15758E-01   818   0.560E+00    0.418E-01
DAV:  10    -0.165606859296E+02    0.78193E-03   -0.25694E-02   764   0.100E+00    0.135E-01
DAV:  11    -0.165606437269E+02    0.42203E-04   -0.19576E-03   794   0.364E-01    0.832E-02
DAV:  12    -0.165606701331E+02   -0.26406E-04   -0.16951E-04   844   0.919E-02
   1 F= -.17798767E+02 E0= -.17798767E+02  d E =-.177988E+02
       N       E                     dE             d eps       ncg     rms          rms(c)
DAV:   1    -0.165635119755E+02   -0.28682E-02   -0.49287E-02   710   0.145E+00    0.209E-01
DAV:   2    -0.165626101107E+02    0.90186E-03   -0.30125E-03   854   0.432E-01    0.912E-02
DAV:   3    -0.165625328209E+02    0.77290E-04   -0.29528E-04   854   0.163E-01    0.609E-02
DAV:   4    -0.165625379639E+02   -0.51430E-05   -0.21022E-04   758   0.199E-01
   2 F= -.17798919E+02 E0= -.17798919E+02  d E =-.151296E-03
