 vasp.5.4.4.16052018 (build Dec 07 2020 11:33:42) complex                       
  
 executed on             LinuxIFC date 2020.12.13  00:41:04
 running on    8 total cores
 distrk:  each k-point on    2 cores,    4 groups
 distr:  one band on NCORES_PER_BAND=   1 cores,    2 groups


--------------------------------------------------------------------------------------------------------


 INCAR:
 POTCAR:    PAW_PBE Cl 06Sep2000                  
 POTCAR:    PAW_PBE Br 06Sep2000                  
 POTCAR:    PAW_PBE Pt 04Feb2005                  

 ----------------------------------------------------------------------------- 
|                                                                             |
|           W    W    AA    RRRRR   N    N  II  N    N   GGGG   !!!           |
|           W    W   A  A   R    R  NN   N  II  NN   N  G    G  !!!           |
|           W    W  A    A  R    R  N N  N  II  N N  N  G       !!!           |
|           W WW W  AAAAAA  RRRRR   N  N N  II  N  N N  G  GGG   !            |
|           WW  WW  A    A  R   R   N   NN  II  N   NN  G    G                |
|           W    W  A    A  R    R  N    N  II  N    N   GGGG   !!!           |
|                                                                             |
|      For optimal performance we recommend to set                            |
|        NCORE= 4 - approx SQRT( number of cores)                             |
|      NCORE specifies how many cores store one orbital (NPAR=cpu/NCORE).     |
|      This setting can  greatly improve the performance of VASP for DFT.     |
|      The default,   NCORE=1            might be grossly inefficient         |
|      on modern multi-core architectures or massively parallel machines.     |
|      Do your own testing !!!!                                               |
|      Unfortunately you need to use the default for GW and RPA calculations. |
|      (for HF NCORE is supported but not extensively tested yet)             |
|                                                                             |
 ----------------------------------------------------------------------------- 


 ----------------------------------------------------------------------------- 
|                                                                             |
|           W    W    AA    RRRRR   N    N  II  N    N   GGGG   !!!           |
|           W    W   A  A   R    R  NN   N  II  NN   N  G    G  !!!           |
|           W    W  A    A  R    R  N N  N  II  N N  N  G       !!!           |
|           W WW W  AAAAAA  RRRRR   N  N N  II  N  N N  G  GGG   !            |
|           WW  WW  A    A  R   R   N   NN  II  N   NN  G    G                |
|           W    W  A    A  R    R  N    N  II  N    N   GGGG   !!!           |
|                                                                             |
|      You have enabled k-point parallelism (KPAR>1).                         |
|      This developmental code was originally  written by Paul Kent at ORNL,  |
|      and carefully double checked in Vienna.                                |
|      GW as well as linear response parallelism added by Martijn Marsman     |
|      and Georg Kresse.                                                      |
|      Carefully verify results versus KPAR=1.                                |
|      Report problems to Paul Kent and Vienna.                               |
|                                                                             |
 ----------------------------------------------------------------------------- 

 POTCAR:    PAW_PBE Cl 06Sep2000                  
   VRHFIN =Cl: s2p5                                                             
   LEXCH  = PE                                                                  
   EATOM  =   409.7259 eV,   30.1140 Ry                                         
                                                                                
   TITEL  = PAW_PBE Cl 06Sep2000                                                
   LULTRA =        F    use ultrasoft PP ?                                      
   IUNSCR =        1    unscreen: 0-lin 1-nonlin 2-no                           
   RPACOR =    1.500    partial core radius                                     
   POMASS =   35.453; ZVAL   =    7.000    mass and valenz                      
   RCORE  =    1.900    outmost cutoff radius                                   
   RWIGS  =    2.100; RWIGS  =    1.111    wigner-seitz radius (au A)           
   ENMAX  =  262.472; ENMIN  =  196.854 eV                                      
   ICORE  =        2    local potential                                         
   LCOR   =        T    correct aug charges                                     
   LPAW   =        T    paw PP                                                  
   EAUG   =  356.192                                                            
   DEXC   =    0.000                                                            
   RMAX   =    1.945    core radius for proj-oper                               
   RAUG   =    1.300    factor for augmentation sphere                          
   RDEP   =    2.020    radius for radial grids                                 
   RDEPT  =    1.678    core radius for aug-charge                              
                                                                                
   Atomic configuration                                                         
    6 entries                                                                   
     n  l   j            E        occ.                                          
     1  0  0.50     -2751.1850   2.0000                                         
     2  0  0.50      -252.6861   2.0000                                         
     2  1  1.50      -191.6157   6.0000                                         
     3  0  0.50       -20.6916   2.0000                                         
     3  1  0.50        -8.5949   5.0000                                         
     3  2  1.50        -8.1635   0.0000                                         
   Description                                                                  
     l       E           TYP  RCUT    TYP  RCUT                                 
     0    -20.6915656     23  1.900                                             
     0    -22.0521482     23  1.900                                             
     1     -8.5948577     23  1.900                                             
     1     -5.3847331     23  1.900                                             
     2     -8.1634956     23  1.900                                             
  local pseudopotential read in
  partial core-charges read in
  partial kinetic energy density read in
  atomic valenz-charges read in
  non local Contribution for L=           0  read in
    real space projection operators read in
  non local Contribution for L=           0  read in
    real space projection operators read in
  non local Contribution for L=           1  read in
    real space projection operators read in
  non local Contribution for L=           1  read in
    real space projection operators read in
    PAW grid and wavefunctions read in
 
   number of l-projection  operators is LMAX  =           4
   number of lm-projection operators is LMMAX =           8
 
 POTCAR:    PAW_PBE Br 06Sep2000                  
   VRHFIN =Br: s2p5                                                             
   LEXCH  = PE                                                                  
   EATOM  =   368.4488 eV,   27.0802 Ry                                         
                                                                                
   TITEL  = PAW_PBE Br 06Sep2000                                                
   LULTRA =        F    use ultrasoft PP ?                                      
   IUNSCR =        1    unscreen: 0-lin 1-nonlin 2-no                           
   RPACOR =    1.900    partial core radius                                     
   POMASS =   79.904; ZVAL   =    7.000    mass and valenz                      
   RCORE  =    2.100    outmost cutoff radius                                   
   RWIGS  =    2.200; RWIGS  =    1.164    wigner-seitz radius (au A)           
   ENMAX  =  216.285; ENMIN  =  162.214 eV                                      
   ICORE  =        3    local potential                                         
   LCOR   =        T    correct aug charges                                     
   LPAW   =        T    paw PP                                                  
   EAUG   =  503.852                                                            
   DEXC   =    0.000                                                            
   RMAX   =    2.139    core radius for proj-oper                               
   RAUG   =    1.300    factor for augmentation sphere                          
   RDEP   =    2.186    radius for radial grids                                 
   RDEPT  =    1.890    core radius for aug-charge                              
                                                                                
   Atomic configuration                                                         
   10 entries                                                                   
     n  l   j            E        occ.                                          
     1  0  0.50    -13316.2796   2.0000                                         
     2  0  0.50     -1732.8239   2.0000                                         
     2  1  1.50     -1528.2193   6.0000                                         
     3  0  0.50      -238.0460   2.0000                                         
     3  1  1.50      -173.4609   6.0000                                         
     3  2  2.50       -66.7132  10.0000                                         
     4  0  0.50       -20.1334   2.0000                                         
     4  1  0.50        -7.8591   5.0000                                         
     4  2  2.50        -8.1635   0.0000                                         
     4  3  2.50        -8.1635   0.0000                                         
   Description                                                                  
     l       E           TYP  RCUT    TYP  RCUT                                 
     0    -20.1333652     23  2.100                                             
     0    -21.4939478     23  2.100                                             
     1     -7.8591052     23  2.100                                             
     1     -3.1608434     23  2.100                                             
     2     -8.1634956     23  2.100                                             
     3     -1.3605826      7  2.100                                             
  local pseudopotential read in
  partial core-charges read in
  partial kinetic energy density read in
  atomic valenz-charges read in
  non local Contribution for L=           0  read in
    real space projection operators read in
  non local Contribution for L=           0  read in
    real space projection operators read in
  non local Contribution for L=           1  read in
    real space projection operators read in
  non local Contribution for L=           1  read in
    real space projection operators read in
  non local Contribution for L=           2  read in
    real space projection operators read in
    PAW grid and wavefunctions read in
 
   number of l-projection  operators is LMAX  =           5
   number of lm-projection operators is LMMAX =          13
 
 POTCAR:    PAW_PBE Pt 04Feb2005                  
   VRHFIN =Pt: s1d9                                                             
   LEXCH  = PE                                                                  
   EATOM  =   729.1176 eV,   53.5886 Ry                                         
                                                                                
   TITEL  = PAW_PBE Pt 04Feb2005                                                
   LULTRA =        F    use ultrasoft PP ?                                      
   IUNSCR =        1    unscreen: 0-lin 1-nonlin 2-no                           
   RPACOR =    2.330    partial core radius                                     
   POMASS =  195.080; ZVAL   =   10.000    mass and valenz                      
   RCORE  =    2.600    outmost cutoff radius                                   
   RWIGS  =    2.750; RWIGS  =    1.455    wigner-seitz radius (au A)           
   ENMAX  =  230.283; ENMIN  =  172.712 eV                                      
   ICORE  =        3    local potential                                         
   LCOR   =        T    correct aug charges                                     
   LPAW   =        T    paw PP                                                  
   EAUG   =  358.966                                                            
   DEXC   =    0.000                                                            
   RMAX   =    2.658    core radius for proj-oper                               
   RAUG   =    1.300    factor for augmentation sphere                          
   RDEP   =    2.761    radius for radial grids                                 
   RDEPT  =    2.203    core radius for aug-charge                              
                                                                                
   Atomic configuration                                                         
   16 entries                                                                   
     n  l   j            E        occ.                                          
     1  0  0.50    -78401.1885   2.0000                                         
     2  0  0.50    -13770.7750   2.0000                                         
     2  1  1.50    -11931.0468   6.0000                                         
     3  0  0.50     -3234.7234   2.0000                                         
     3  1  1.50     -2699.2216   6.0000                                         
     3  2  2.50     -2119.5714  10.0000                                         
     4  0  0.50      -695.1528   2.0000                                         
     4  1  1.50      -519.6034   6.0000                                         
     4  2  2.50      -306.6786  10.0000                                         
     4  3  3.50       -70.1041  14.0000                                         
     5  0  0.50      -101.7747   2.0000                                         
     5  1  1.50       -55.9873   6.0000                                         
     5  2  2.50        -6.1423   9.0000                                         
     6  0  0.50        -5.6573   1.0000                                         
     6  1  1.50        -6.8029   0.0000                                         
     5  3  2.50        -1.3606   0.0000                                         
   Description                                                                  
     l       E           TYP  RCUT    TYP  RCUT                                 
     2     -6.1423404     23  2.500                                             
     2     -7.5029230     23  2.500                                             
     0     -5.6573207     23  2.500                                             
     0      0.7416693     23  2.500                                             
     1     -2.7211652     23  2.600                                             
     1     20.4087390     23  2.600                                             
     3     -1.3605826     23  2.500                                             
  local pseudopotential read in
  partial core-charges read in
  partial kinetic energy density read in
  atomic valenz-charges read in
  non local Contribution for L=           2  read in
    real space projection operators read in
  non local Contribution for L=           2  read in
    real space projection operators read in
  non local Contribution for L=           0  read in
    real space projection operators read in
  non local Contribution for L=           0  read in
    real space projection operators read in
  non local Contribution for L=           1  read in
    real space projection operators read in
  non local Contribution for L=           1  read in
    real space projection operators read in
    PAW grid and wavefunctions read in
 
   number of l-projection  operators is LMAX  =           6
   number of lm-projection operators is LMMAX =          18
 
  PAW_PBE Cl 06Sep2000                  :
 energy of atom  1       EATOM= -409.7259
 kinetic energy error for atom=    0.0150 (will be added to EATOM!!)
  PAW_PBE Br 06Sep2000                  :
 energy of atom  2       EATOM= -368.4488
 kinetic energy error for atom=    0.0072 (will be added to EATOM!!)
  PAW_PBE Pt 04Feb2005                  :
 energy of atom  3       EATOM= -729.1176
 kinetic energy error for atom=    0.0416 (will be added to EATOM!!)
 
 
 POSCAR: ClBrPt2                                 
  positions in direct lattice
  velocities in cartesian coordinates
 exchange correlation table for  LEXCH =        8
   RHO(1)=    0.500       N(1)  =     2000
   RHO(2)=  100.500       N(2)  =     4000
 


--------------------------------------------------------------------------------------------------------


 ion  position               nearest neighbor table
   1  0.000  0.500  0.168-   4 2.49   4 2.49   4 2.49
   2  0.000  0.500  0.386-   3 2.58   3 2.58   3 2.58
   3  0.333  0.167  0.310-   4 2.58   4 2.58   4 2.58   2 2.58   2 2.58   2 2.58
   4  0.667  0.833  0.236-   1 2.49   1 2.49   1 2.49   3 2.58   3 2.58   3 2.58
 

IMPORTANT INFORMATION: All symmetrisations will be switched off!
NOSYMM: (Re-)initialisation of all symmetry stuff for point group C_1.

 
 
 KPOINTS: Automatic mesh                          

Automatic generation of k-mesh.
Space group operators:
 irot       det(A)        alpha          n_x          n_y          n_z        tau_x        tau_y        tau_z
    1     1.000000     0.000001     1.000000     0.000000     0.000000     0.000000     0.000000     0.000000
 
 Subroutine IBZKPT returns following result:
 ===========================================
 
 Found     16 irreducible k-points:
 
 Following reciprocal coordinates:
            Coordinates               Weight
  0.000000  0.000000  0.000000      1.000000
  0.250000  0.000000  0.000000      1.000000
  0.500000  0.000000  0.000000      1.000000
 -0.250000 -0.000000  0.000000      1.000000
  0.000000  0.250000  0.000000      1.000000
  0.250000  0.250000  0.000000      1.000000
  0.500000  0.250000  0.000000      1.000000
 -0.250000  0.250000  0.000000      1.000000
  0.000000  0.500000  0.000000      1.000000
  0.250000  0.500000  0.000000      1.000000
  0.500000  0.500000  0.000000      1.000000
 -0.250000  0.500000  0.000000      1.000000
 -0.000000 -0.250000  0.000000      1.000000
  0.250000 -0.250000  0.000000      1.000000
  0.500000 -0.250000  0.000000      1.000000
 -0.250000 -0.250000  0.000000      1.000000
 
 Following cartesian coordinates:
            Coordinates               Weight
  0.000000  0.000000  0.000000      1.000000
  0.069201  0.039034  0.000000      1.000000
  0.138401  0.078068  0.000000      1.000000
 -0.069201 -0.039034  0.000000      1.000000
  0.000796  0.079446  0.000000      1.000000
  0.069997  0.118480  0.000000      1.000000
  0.139197  0.157514  0.000000      1.000000
 -0.068404  0.040413  0.000000      1.000000
  0.001592  0.158893  0.000000      1.000000
  0.070793  0.197927  0.000000      1.000000
  0.139993  0.236960  0.000000      1.000000
 -0.067608  0.119859  0.000000      1.000000
 -0.000796 -0.079446  0.000000      1.000000
  0.068404 -0.040413  0.000000      1.000000
  0.137605 -0.001379  0.000000      1.000000
 -0.069997 -0.118480  0.000000      1.000000
 


--------------------------------------------------------------------------------------------------------




 Dimension of arrays:
   k-points           NKPTS =     16   k-points in BZ     NKDIM =     16   number of bands    NBANDS=     22
   number of dos      NEDOS =    301   number of ions     NIONS =      4
   non local maximal  LDIM  =      6   non local SUM 2l+1 LMDIM =     18
   total plane-waves  NPLWV =  69120
   max r-space proj   IRMAX =      1   max aug-charges    IRDMAX=  18506
   dimension x,y,z NGX =    24 NGY =   24 NGZ =  120
   dimension x,y,z NGXF=    48 NGYF=   48 NGZF=  240
   support grid    NGXF=    48 NGYF=   48 NGZF=  240
   ions per type =               1   1   2
   NGX,Y,Z   is equivalent  to a cutoff of  10.98, 10.98,  9.97 a.u.
   NGXF,Y,Z  is equivalent  to a cutoff of  21.96, 21.96, 19.95 a.u.

 SYSTEM =  unknown system                          
 POSCAR =  ClBrPt2                                 

 Startparameter for this run:
   NWRITE =      2    write-flag & timer
   PREC   = accura    normal or accurate (medium, high low for compatibility)
   ISTART =      0    job   : 0-new  1-cont  2-samecut
   ICHARG =      2    charge: 1-file 2-atom 10-const
   ISPIN  =      1    spin polarized calculation?
   LNONCOLLINEAR =      F non collinear calculations
   LSORBIT =      F    spin-orbit coupling
   INIWAV =      1    electr: 0-lowe 1-rand  2-diag
   LASPH  =      F    aspherical Exc in radial PAW
   METAGGA=      F    non-selfconsistent MetaGGA calc.

 Electronic Relaxation 1
   ENCUT  =  300.0 eV  22.05 Ry    4.70 a.u.   5.13  5.13 28.25*2*pi/ulx,y,z
   ENINI  =  300.0     initial cutoff
   ENAUG  =  503.9 eV  augmentation charge cutoff
   NELM   =     60;   NELMIN=  2; NELMDL= -5     # of ELM steps 
   EDIFF  = 0.5E-04   stopping-criterion for ELM
   LREAL  =      F    real-space projection
   NLSPLINE    = F    spline interpolate recip. space projectors
   LCOMPAT=      F    compatible to vasp.4.4
   GGA_COMPAT  = T    GGA compatible to vasp.4.4-vasp.4.6
   LMAXPAW     = -100 max onsite density
   LMAXMIX     =    2 max onsite mixed and CHGCAR
   VOSKOWN=      0    Vosko Wilk Nusair interpolation
   ROPT   =    0.00000   0.00000   0.00000
 Ionic relaxation
   EDIFFG = 0.5E-03   stopping-criterion for IOM
   NSW    =    100    number of steps for IOM
   NBLOCK =      1;   KBLOCK =    100    inner block; outer block 
   IBRION =      1    ionic relax: 0-MD 1-quasi-New 2-CG
   NFREE  =      0    steps in history (QN), initial steepest desc. (CG)
   ISIF   =      3    stress and relaxation
   IWAVPR =     11    prediction:  0-non 1-charg 2-wave 3-comb
   ISYM   =     -1    0-nonsym 1-usesym 2-fastsym
   LCORR  =      T    Harris-Foulkes like correction to forces

   POTIM  = 0.5000    time-step for ionic-motion
   TEIN   =    0.0    initial temperature
   TEBEG  =    0.0;   TEEND  =   0.0 temperature during run
   SMASS  =  -3.00    Nose mass-parameter (am)
   estimated Nose-frequenzy (Omega)   =  0.10E-29 period in steps =****** mass=  -0.302E-27a.u.
   SCALEE = 1.0000    scale energy and forces
   NPACO  =    256;   APACO  = 16.0  distance and # of slots for P.C.
   PSTRESS=    0.0 pullay stress

  Mass of Ions in am
   POMASS =  35.45 79.90195.08
  Ionic Valenz
   ZVAL   =   7.00  7.00 10.00
  Atomic Wigner-Seitz radii
   RWIGS  =  -1.00 -1.00 -1.00
  virtual crystal weights 
   VCA    =   1.00  1.00  1.00
   NELECT =      34.0000    total number of electrons
   NUPDOWN=      -1.0000    fix difference up-down

 DOS related values:
   EMIN   =  10.00;   EMAX   =-10.00  energy-range for DOS
   EFERMI =   0.00
   ISMEAR =     0;   SIGMA  =   0.10  broadening in eV -4-tet -1-fermi 0-gaus

 Electronic relaxation 2 (details)
   IALGO  =     38    algorithm
   LDIAG  =      T    sub-space diagonalisation (order eigenvalues)
   LSUBROT=      F    optimize rotation matrix (better conditioning)
   TURBO    =      0    0=normal 1=particle mesh
   IRESTART =      0    0=no restart 2=restart with 2 vectors
   NREBOOT  =      0    no. of reboots
   NMIN     =      0    reboot dimension
   EREF     =   0.00    reference energy to select bands
   IMIX   =      4    mixing-type and parameters
     AMIX     =   0.40;   BMIX     =  1.00
     AMIX_MAG =   1.60;   BMIX_MAG =  1.00
     AMIN     =   0.10
     WC   =   100.;   INIMIX=   1;  MIXPRE=   1;  MAXMIX= -45

 Intra band minimization:
   WEIMIN = 0.0010     energy-eigenvalue tresh-hold
   EBREAK =  0.57E-06  absolut break condition
   DEPER  =   0.30     relativ break condition  

   TIME   =   0.40     timestep for ELM

  volume/ion in A,a.u.               =      57.16       385.77
  Fermi-wavevector in a.u.,A,eV,Ry     =   0.867305  1.638969 10.234543  0.752218
  Thomas-Fermi vector in A             =   1.985820
 
 Write flags
   LWAVE        =      T    write WAVECAR
   LDOWNSAMPLE  =      F    k-point downsampling of WAVECAR
   LCHARG       =      T    write CHGCAR
   LVTOT        =      F    write LOCPOT, total local potential
   LVHAR        =      F    write LOCPOT, Hartree potential only
   LELF         =      F    write electronic localiz. function (ELF)
   LORBIT       =      0    0 simple, 1 ext, 2 COOP (PROOUT), +10 PAW based schemes


 Dipole corrections
   LMONO  =      F    monopole corrections only (constant potential shift)
   LDIPOL =      T    correct potential (dipole corrections)
   IDIPOL =      3    1-x, 2-y, 3-z, 4-all directions 
   EPSILON=  1.0000000 bulk dielectric constant

 Exchange correlation treatment:
   GGA     =    --    GGA type
   LEXCH   =     8    internal setting for exchange type
   VOSKOWN=      0    Vosko Wilk Nusair interpolation
   LHFCALC =     F    Hartree Fock is set to
   LHFONE  =     F    Hartree Fock one center treatment
   AEXX    =    0.0000 exact exchange contribution

 Linear response parameters
   LEPSILON=     F    determine dielectric tensor
   LRPA    =     F    only Hartree local field effects (RPA)
   LNABLA  =     F    use nabla operator in PAW spheres
   LVEL    =     F    velocity operator in full k-point grid
   LINTERFAST=   F  fast interpolation
   KINTER  =     0    interpolate to denser k-point grid
   CSHIFT  =0.1000    complex shift for real part using Kramers Kronig
   OMEGAMAX=  -1.0    maximum frequency
   DEG_THRESHOLD= 0.2000000E-02 threshold for treating states as degnerate
   RTIME   =   -0.100 relaxation time in fs
  (WPLASMAI=    0.000 imaginary part of plasma frequency in eV, 0.658/RTIME)
   DFIELD  = 0.0000000 0.0000000 0.0000000 field for delta impulse in time
 
 Orbital magnetization related:
   ORBITALMAG=     F  switch on orbital magnetization
   LCHIMAG   =     F  perturbation theory with respect to B field
   DQ        =  0.001000  dq finite difference perturbation B field
   LLRAUG    =     F  two centre corrections for induced B field



--------------------------------------------------------------------------------------------------------


 quasi-Newton-method for relaxation of ions
 charge density and potential will be updated during run
 non-spin polarized calculation
 Variant of blocked Davidson
 Davidson routine will perform the subspace rotation
 perform sub-space diagonalisation
    after iterative eigenvector-optimisation
 modified Broyden-mixing scheme, WC =      100.0
 initial mixing is a Kerker type mixing with AMIX =  0.4000 and BMIX =      1.0000
 Hartree-type preconditioning will be used
 using additional bands            5
 reciprocal scheme for non local part
 use partial core corrections
 calculate Harris-corrections to forces 
   (improved forces if not selfconsistent)
 use gradient corrections 
 use of overlap-Matrix (Vanderbilt PP)
 Gauss-broadening in eV      SIGMA  =   0.10


--------------------------------------------------------------------------------------------------------


  energy-cutoff  :      300.00
  volume of cell :      228.66
      direct lattice vectors                 reciprocal lattice vectors
     3.633224859 -0.036406390  0.000000000     0.276802112  0.156135111  0.000000000
    -1.785084008  3.164663104  0.000000000     0.003184341  0.317785585  0.000000000
     0.000000000  0.000000000 20.000000000     0.000000000  0.000000000  0.050000000

  length of vectors
     3.633407257  3.633403016 20.000000000     0.317801168  0.317801539  0.050000000


 
 k-points in units of 2pi/SCALE and weight: Automatic mesh                          
   0.00000000  0.00000000  0.00000000       0.062
   0.06920053  0.03903378  0.00000000       0.062
   0.13840106  0.07806756  0.00000000       0.062
  -0.06920053 -0.03903378  0.00000000       0.062
   0.00079609  0.07944640  0.00000000       0.062
   0.06999661  0.11848017  0.00000000       0.062
   0.13919714  0.15751395  0.00000000       0.062
  -0.06840444  0.04041262  0.00000000       0.062
   0.00159217  0.15889279  0.00000000       0.062
   0.07079270  0.19792657  0.00000000       0.062
   0.13999323  0.23696035  0.00000000       0.062
  -0.06760836  0.11985901  0.00000000       0.062
  -0.00079609 -0.07944640  0.00000000       0.062
   0.06840444 -0.04041262  0.00000000       0.062
   0.13760497 -0.00137884  0.00000000       0.062
  -0.06999661 -0.11848017  0.00000000       0.062
 
 k-points in reciprocal lattice and weights: Automatic mesh                          
   0.00000000  0.00000000  0.00000000       0.062
   0.25000000  0.00000000  0.00000000       0.062
   0.50000000  0.00000000  0.00000000       0.062
  -0.25000000 -0.00000000  0.00000000       0.062
   0.00000000  0.25000000  0.00000000       0.062
   0.25000000  0.25000000  0.00000000       0.062
   0.50000000  0.25000000  0.00000000       0.062
  -0.25000000  0.25000000  0.00000000       0.062
   0.00000000  0.50000000  0.00000000       0.062
   0.25000000  0.50000000  0.00000000       0.062
   0.50000000  0.50000000  0.00000000       0.062
  -0.25000000  0.50000000  0.00000000       0.062
  -0.00000000 -0.25000000  0.00000000       0.062
   0.25000000 -0.25000000  0.00000000       0.062
   0.50000000 -0.25000000  0.00000000       0.062
  -0.25000000 -0.25000000  0.00000000       0.062
 
 position of ions in fractional coordinates (direct lattice) 
   0.00003299  0.49996177  0.16837592
   0.00003217  0.49995992  0.38568824
   0.33336544  0.16662755  0.31043029
   0.66669879  0.83329441  0.23573884
 
 position of ions in cartesian coordinates  (Angst):
  -0.89235390  1.58220936  3.36751837
  -0.89235356  1.58220353  7.71376484
   0.91374744  0.51518342  6.20860588
   0.93476610  2.61282397  4.71477683
 


--------------------------------------------------------------------------------------------------------


 k-point  1 :   0.0000 0.0000 0.0000  plane waves:    2685
 k-point  2 :   0.2500 0.0000 0.0000  plane waves:    2695
 k-point  3 :   0.5000 0.0000 0.0000  plane waves:    2698
 k-point  4 :  -0.2500-0.0000 0.0000  plane waves:    2695
 k-point  5 :   0.0000 0.2500 0.0000  plane waves:    2695
 k-point  6 :   0.2500 0.2500 0.0000  plane waves:    2707
 k-point  7 :   0.5000 0.2500 0.0000  plane waves:    2707
 k-point  8 :  -0.2500 0.2500 0.0000  plane waves:    2695
 k-point  9 :   0.0000 0.5000 0.0000  plane waves:    2698
 k-point 10 :   0.2500 0.5000 0.0000  plane waves:    2707
 k-point 11 :   0.5000 0.5000 0.0000  plane waves:    2698
 k-point 12 :  -0.2500 0.5000 0.0000  plane waves:    2707
 k-point 13 :  -0.0000-0.2500 0.0000  plane waves:    2695
 k-point 14 :   0.2500-0.2500 0.0000  plane waves:    2695
 k-point 15 :   0.5000-0.2500 0.0000  plane waves:    2707
 k-point 16 :  -0.2500-0.2500 0.0000  plane waves:    2707

 maximum and minimum number of plane-waves per node :      2707     2685

 maximum number of plane-waves:      2707
 maximum index in each direction: 
   IXMAX=    5   IYMAX=    5   IZMAX=   28
   IXMIN=   -5   IYMIN=   -5   IZMIN=  -28


 serial   3D FFT for wavefunctions
 parallel 3D FFT for charge:
    minimum data exchange during FFTs selected (reduces bandwidth)


 total amount of memory used by VASP MPI-rank0    86942. kBytes
=======================================================================

   base      :      30000. kBytes
   nonl-proj :      18891. kBytes
   fftplans  :       9621. kBytes
   grid      :      20579. kBytes
   one-center:         62. kBytes
   wavefun   :       7789. kBytes
 
     INWAV:  cpu time    0.0000: real time    0.0000
 Broyden mixing: mesh for mixing (old mesh)
   NGX = 11   NGY = 11   NGZ = 57
  (NGX  = 48   NGY  = 48   NGZ  =240)
  gives a total of   6897 points

 initial charge density was supplied:
 charge density of overlapping atoms calculated
 number of electron      34.0000000 magnetization 
 keeping initial charge density in first step


--------------------------------------------------------------------------------------------------------


 Maximum index for augmentation-charges         8887 (set IRDMAX)


--------------------------------------------------------------------------------------------------------


 First call to EWALD:  gamma=   0.290
 Maximum number of real-space cells 5x 5x 1
 Maximum number of reciprocal cells 2x 2x 8

    FEWALD:  cpu time    0.0012: real time    0.0012


--------------------------------------- Iteration      1(   1)  ---------------------------------------


    POTLOK:  cpu time    0.2429: real time    0.2429
    SETDIJ:  cpu time    0.0059: real time    0.0059
     EDDAV:  cpu time    0.7095: real time    0.7096
       DOS:  cpu time    0.0003: real time    0.0003
    --------------------------------------------
      LOOP:  cpu time    0.9586: real time    0.9587

 eigenvalue-minimisations  :   704
 total energy-change (2. order) : 0.2230005E+03  (-0.1006334E+04)
 number of electron      34.0000000 magnetization 
 augmentation part       34.0000000 magnetization 

 DIPCOR: dipole corrections for dipol
 direction  3 min pos   183,
 dipolmoment           0.000000      0.000000     -0.000023 electrons x Angstroem
 Tr[quadrupol]       -79.162539

 energy correction for charged system         0.000000 eV
 dipol+quadrupol energy correction           -0.000000 eV
 added-field ion interaction          0.000200 eV  (added to PSCEN)


 Free energy of the ion-electron system (eV)
  ---------------------------------------------------
  alpha Z        PSCENC =        42.44948189
  Ewald energy   TEWEN  =      5970.85761313
  -Hartree energ DENC   =     -8160.35030884
  -exchange      EXHF   =         0.00000000
  -V(xc)+E(xc)   XCENC  =        37.18617581
  PAW double counting   =      2012.60260865    -1949.97488812
  entropy T*S    EENTRO =        -0.00802634
  eigenvalues    EBANDS =        33.93323776
  atomic energy  EATOM  =      2236.30457717
  Solvation  Ediel_sol  =         0.00000000
  ---------------------------------------------------
  free energy    TOTEN  =       223.00047111 eV

  energy without entropy =      223.00849745  energy(sigma->0) =      223.00448428


--------------------------------------------------------------------------------------------------------




--------------------------------------- Iteration      1(   2)  ---------------------------------------


     EDDAV:  cpu time    0.9596: real time    0.9597
       DOS:  cpu time    0.0002: real time    0.0002
    --------------------------------------------
      LOOP:  cpu time    0.9598: real time    0.9599

 eigenvalue-minimisations  :  1062
 total energy-change (2. order) :-0.2200924E+03  (-0.2106229E+03)
 number of electron      34.0000000 magnetization 
 augmentation part       34.0000000 magnetization 

 DIPCOR: dipole corrections for dipol
 direction  3 min pos   183,
 dipolmoment           0.000000      0.000000     -0.000023 electrons x Angstroem
 Tr[quadrupol]       -79.162539

 energy correction for charged system         0.000000 eV
 dipol+quadrupol energy correction           -0.000000 eV
 added-field ion interaction          0.000200 eV  (added to PSCEN)


 Free energy of the ion-electron system (eV)
  ---------------------------------------------------
  alpha Z        PSCENC =        42.44948189
  Ewald energy   TEWEN  =      5970.85761313
  -Hartree energ DENC   =     -8160.35030884
  -exchange      EXHF   =         0.00000000
  -V(xc)+E(xc)   XCENC  =        37.18617581
  PAW double counting   =      2012.60260865    -1949.97488812
  entropy T*S    EENTRO =        -0.00000002
  eigenvalues    EBANDS =      -186.16714601
  atomic energy  EATOM  =      2236.30457717
  Solvation  Ediel_sol  =         0.00000000
  ---------------------------------------------------
  free energy    TOTEN  =         2.90811365 eV

  energy without entropy =        2.90811368  energy(sigma->0) =        2.90811366


--------------------------------------------------------------------------------------------------------




--------------------------------------- Iteration      1(   3)  ---------------------------------------


     EDDAV:  cpu time    0.8230: real time    0.8231
       DOS:  cpu time    0.0002: real time    0.0002
    --------------------------------------------
      LOOP:  cpu time    0.8232: real time    0.8233

 eigenvalue-minimisations  :   860
 total energy-change (2. order) :-0.1990886E+02  (-0.1957062E+02)
 number of electron      34.0000000 magnetization 
 augmentation part       34.0000000 magnetization 

 DIPCOR: dipole corrections for dipol
 direction  3 min pos   183,
 dipolmoment           0.000000      0.000000     -0.000023 electrons x Angstroem
 Tr[quadrupol]       -79.162539

 energy correction for charged system         0.000000 eV
 dipol+quadrupol energy correction           -0.000000 eV
 added-field ion interaction          0.000200 eV  (added to PSCEN)


 Free energy of the ion-electron system (eV)
  ---------------------------------------------------
  alpha Z        PSCENC =        42.44948189
  Ewald energy   TEWEN  =      5970.85761313
  -Hartree energ DENC   =     -8160.35030884
  -exchange      EXHF   =         0.00000000
  -V(xc)+E(xc)   XCENC  =        37.18617581
  PAW double counting   =      2012.60260865    -1949.97488812
  entropy T*S    EENTRO =        -0.00000000
  eigenvalues    EBANDS =      -206.07600642
  atomic energy  EATOM  =      2236.30457717
  Solvation  Ediel_sol  =         0.00000000
  ---------------------------------------------------
  free energy    TOTEN  =       -17.00074673 eV

  energy without entropy =      -17.00074673  energy(sigma->0) =      -17.00074673


--------------------------------------------------------------------------------------------------------




--------------------------------------- Iteration      1(   4)  ---------------------------------------


     EDDAV:  cpu time    0.8087: real time    0.8087
       DOS:  cpu time    0.0002: real time    0.0002
    --------------------------------------------
      LOOP:  cpu time    0.8089: real time    0.8089

 eigenvalue-minimisations  :   832
 total energy-change (2. order) :-0.4517371E+00  (-0.4498372E+00)
 number of electron      34.0000000 magnetization 
 augmentation part       34.0000000 magnetization 

 DIPCOR: dipole corrections for dipol
 direction  3 min pos   183,
 dipolmoment           0.000000      0.000000     -0.000023 electrons x Angstroem
 Tr[quadrupol]       -79.162539

 energy correction for charged system         0.000000 eV
 dipol+quadrupol energy correction           -0.000000 eV
 added-field ion interaction          0.000200 eV  (added to PSCEN)


 Free energy of the ion-electron system (eV)
  ---------------------------------------------------
  alpha Z        PSCENC =        42.44948189
  Ewald energy   TEWEN  =      5970.85761313
  -Hartree energ DENC   =     -8160.35030884
  -exchange      EXHF   =         0.00000000
  -V(xc)+E(xc)   XCENC  =        37.18617581
  PAW double counting   =      2012.60260865    -1949.97488812
  entropy T*S    EENTRO =        -0.00000000
  eigenvalues    EBANDS =      -206.52774350
  atomic energy  EATOM  =      2236.30457717
  Solvation  Ediel_sol  =         0.00000000
  ---------------------------------------------------
  free energy    TOTEN  =       -17.45248382 eV

  energy without entropy =      -17.45248382  energy(sigma->0) =      -17.45248382


--------------------------------------------------------------------------------------------------------




--------------------------------------- Iteration      1(   5)  ---------------------------------------


     EDDAV:  cpu time    0.8031: real time    0.8031
       DOS:  cpu time    0.0002: real time    0.0002
    CHARGE:  cpu time    0.0884: real time    0.0884
    MIXING:  cpu time    0.0073: real time    0.0073
    --------------------------------------------
      LOOP:  cpu time    0.8991: real time    0.8991

 eigenvalue-minimisations  :   842
 total energy-change (2. order) :-0.1170620E-01  (-0.1170267E-01)
 number of electron      34.0000007 magnetization 
 augmentation part        3.4286990 magnetization 

 DIPCOR: dipole corrections for dipol
 direction  3 min pos   183,
 dipolmoment           0.000000      0.000000     -0.000023 electrons x Angstroem
 Tr[quadrupol]       -79.162539

 energy correction for charged system         0.000000 eV
 dipol+quadrupol energy correction           -0.000000 eV
 added-field ion interaction          0.000200 eV  (added to PSCEN)


 Broyden mixing:
  rms(total) = 0.15867E+01    rms(broyden)= 0.15864E+01
  rms(prec ) = 0.16104E+01
  weight for this iteration     100.00

 Free energy of the ion-electron system (eV)
  ---------------------------------------------------
  alpha Z        PSCENC =        42.44948189
  Ewald energy   TEWEN  =      5970.85761313
  -Hartree energ DENC   =     -8160.35030884
  -exchange      EXHF   =         0.00000000
  -V(xc)+E(xc)   XCENC  =        37.18617581
  PAW double counting   =      2012.60260865    -1949.97488812
  entropy T*S    EENTRO =        -0.00000000
  eigenvalues    EBANDS =      -206.53944970
  atomic energy  EATOM  =      2236.30457717
  Solvation  Ediel_sol  =         0.00000000
  ---------------------------------------------------
  free energy    TOTEN  =       -17.46419002 eV

  energy without entropy =      -17.46419002  energy(sigma->0) =      -17.46419002


--------------------------------------------------------------------------------------------------------




--------------------------------------- Iteration      1(   6)  ---------------------------------------


    POTLOK:  cpu time    0.2385: real time    0.2385
    SETDIJ:  cpu time    0.0060: real time    0.0060
     EDDAV:  cpu time    0.8267: real time    0.8267
       DOS:  cpu time    0.0002: real time    0.0002
    CHARGE:  cpu time    0.0830: real time    0.0831
    MIXING:  cpu time    0.0071: real time    0.0071
    --------------------------------------------
      LOOP:  cpu time    1.1614: real time    1.1615

 eigenvalue-minimisations  :   880
 total energy-change (2. order) : 0.8530112E+00  (-0.2315305E+00)
 number of electron      34.0000006 magnetization 
 augmentation part        3.8495946 magnetization 

 DIPCOR: dipole corrections for dipol
 direction  3 min pos   185,
 dipolmoment           0.000000      0.000000     -0.034372 electrons x Angstroem
 Tr[quadrupol]       -79.106931

 energy correction for charged system         0.000000 eV
 dipol+quadrupol energy correction           -0.000467 eV
 added-field ion interaction          0.148776 eV  (added to PSCEN)


 Broyden mixing:
  rms(total) = 0.89264E+00    rms(broyden)= 0.89263E+00
  rms(prec ) = 0.89729E+00
  weight for this iteration     100.00

 eigenvalues of (default mixing * dielectric matrix)
  average eigenvalue GAMMA=   1.8657
  1.8657

 Free energy of the ion-electron system (eV)
  ---------------------------------------------------
  alpha Z        PSCENC =        42.59758983
  Ewald energy   TEWEN  =      5970.85761313
  -Hartree energ DENC   =     -8144.95856805
  -exchange      EXHF   =         0.00000000
  -V(xc)+E(xc)   XCENC  =        36.89364547
  PAW double counting   =      2282.29230011    -2222.76007877
  entropy T*S    EENTRO =        -0.00000000
  eigenvalues    EBANDS =      -217.83825769
  atomic energy  EATOM  =      2236.30457717
  Solvation  Ediel_sol  =         0.00000000
  ---------------------------------------------------
  free energy    TOTEN  =       -16.61117879 eV

  energy without entropy =      -16.61117879  energy(sigma->0) =      -16.61117879


--------------------------------------------------------------------------------------------------------




--------------------------------------- Iteration      1(   7)  ---------------------------------------


    POTLOK:  cpu time    0.2357: real time    0.2357
    SETDIJ:  cpu time    0.0059: real time    0.0059
     EDDAV:  cpu time    0.7828: real time    0.7828
       DOS:  cpu time    0.0002: real time    0.0002
    CHARGE:  cpu time    0.0845: real time    0.0845
    MIXING:  cpu time    0.0071: real time    0.0071
    --------------------------------------------
      LOOP:  cpu time    1.1161: real time    1.1162

 eigenvalue-minimisations  :   806
 total energy-change (2. order) :-0.6196545E-02  (-0.5667065E-01)
 number of electron      34.0000007 magnetization 
 augmentation part        3.8180037 magnetization 

 DIPCOR: dipole corrections for dipol
 direction  3 min pos   179,
 dipolmoment           0.000000      0.000000     -0.004817 electrons x Angstroem
 Tr[quadrupol]       -79.352177

 energy correction for charged system         0.000000 eV
 dipol+quadrupol energy correction           -0.000009 eV
 added-field ion interaction          0.085650 eV  (added to PSCEN)


 Broyden mixing:
  rms(total) = 0.31544E+00    rms(broyden)= 0.31543E+00
  rms(prec ) = 0.33715E+00
  weight for this iteration     100.00

 eigenvalues of (default mixing * dielectric matrix)
  average eigenvalue GAMMA=   1.5651
  0.8273  2.3028

 Free energy of the ion-electron system (eV)
  ---------------------------------------------------
  alpha Z        PSCENC =        42.53492258
  Ewald energy   TEWEN  =      5970.85761313
  -Hartree energ DENC   =     -8149.75051703
  -exchange      EXHF   =         0.00000000
  -V(xc)+E(xc)   XCENC  =        36.80505194
  PAW double counting   =      2607.54562092    -2550.15756215
  entropy T*S    EENTRO =        -0.00000000
  eigenvalues    EBANDS =      -210.75708190
  atomic energy  EATOM  =      2236.30457717
  Solvation  Ediel_sol  =         0.00000000
  ---------------------------------------------------
  free energy    TOTEN  =       -16.61737534 eV

  energy without entropy =      -16.61737534  energy(sigma->0) =      -16.61737534


--------------------------------------------------------------------------------------------------------




--------------------------------------- Iteration      1(   8)  ---------------------------------------


    POTLOK:  cpu time    0.2377: real time    0.2377
    SETDIJ:  cpu time    0.0063: real time    0.0063
     EDDAV:  cpu time    0.8034: real time    0.8035
       DOS:  cpu time    0.0002: real time    0.0002
    CHARGE:  cpu time    0.0840: real time    0.0840
    MIXING:  cpu time    0.0122: real time    0.0122
    --------------------------------------------
      LOOP:  cpu time    1.1438: real time    1.1438

 eigenvalue-minimisations  :   836
 total energy-change (2. order) :-0.5426668E-01  (-0.4321223E-01)
 number of electron      34.0000006 magnetization 
 augmentation part        3.8243142 magnetization 

 DIPCOR: dipole corrections for dipol
 direction  3 min pos   187,
 dipolmoment           0.000000      0.000000     -0.072709 electrons x Angstroem
 Tr[quadrupol]       -79.356976

 energy correction for charged system         0.000000 eV
 dipol+quadrupol energy correction           -0.002092 eV
 added-field ion interaction         -0.011346 eV  (added to PSCEN)


 Broyden mixing:
  rms(total) = 0.25330E+00    rms(broyden)= 0.25325E+00
  rms(prec ) = 0.30758E+00
  weight for this iteration     100.00

 eigenvalues of (default mixing * dielectric matrix)
  average eigenvalue GAMMA=   1.2639
  2.4359  0.9499  0.4059

 Free energy of the ion-electron system (eV)
  ---------------------------------------------------
  alpha Z        PSCENC =        42.43584363
  Ewald energy   TEWEN  =      5970.85761313
  -Hartree energ DENC   =     -8149.07244424
  -exchange      EXHF   =         0.00000000
  -V(xc)+E(xc)   XCENC  =        36.82113016
  PAW double counting   =      2723.13470173    -2666.41302336
  entropy T*S    EENTRO =        -0.00000000
  eigenvalues    EBANDS =      -210.74004024
  atomic energy  EATOM  =      2236.30457717
  Solvation  Ediel_sol  =         0.00000000
  ---------------------------------------------------
  free energy    TOTEN  =       -16.67164202 eV

  energy without entropy =      -16.67164202  energy(sigma->0) =      -16.67164202


--------------------------------------------------------------------------------------------------------




--------------------------------------- Iteration      1(   9)  ---------------------------------------


    POTLOK:  cpu time    0.2373: real time    0.2373
    SETDIJ:  cpu time    0.0058: real time    0.0058
     EDDAV:  cpu time    0.7926: real time    0.7926
       DOS:  cpu time    0.0002: real time    0.0002
    CHARGE:  cpu time    0.0859: real time    0.0859
    MIXING:  cpu time    0.0073: real time    0.0073
    --------------------------------------------
      LOOP:  cpu time    1.1291: real time    1.1291

 eigenvalue-minimisations  :   818
 total energy-change (2. order) : 0.1101742E+00  (-0.1575846E-01)
 number of electron      34.0000007 magnetization 
 augmentation part        3.8521530 magnetization 

 DIPCOR: dipole corrections for dipol
 direction  3 min pos   194,
 dipolmoment           0.000000      0.000000     -0.034044 electrons x Angstroem
 Tr[quadrupol]       -79.303588

 energy correction for charged system         0.000000 eV
 dipol+quadrupol energy correction           -0.000459 eV
 added-field ion interaction         -0.539647 eV  (added to PSCEN)


 Broyden mixing:
  rms(total) = 0.41763E-01    rms(broyden)= 0.41681E-01
  rms(prec ) = 0.43998E-01
  weight for this iteration     100.00

 eigenvalues of (default mixing * dielectric matrix)
  average eigenvalue GAMMA=   1.2941
  2.4747  1.4165  0.8904  0.3948

 Free energy of the ion-electron system (eV)
  ---------------------------------------------------
  alpha Z        PSCENC =        41.90917622
  Ewald energy   TEWEN  =      5970.85761313
  -Hartree energ DENC   =     -8148.06700099
  -exchange      EXHF   =         0.00000000
  -V(xc)+E(xc)   XCENC  =        36.82943412
  PAW double counting   =      2748.66982000    -2692.07402885
  entropy T*S    EENTRO =        -0.00000000
  eigenvalues    EBANDS =      -210.99105866
  atomic energy  EATOM  =      2236.30457717
  Solvation  Ediel_sol  =         0.00000000
  ---------------------------------------------------
  free energy    TOTEN  =       -16.56146786 eV

  energy without entropy =      -16.56146786  energy(sigma->0) =      -16.56146786


--------------------------------------------------------------------------------------------------------




--------------------------------------- Iteration      1(  10)  ---------------------------------------


    POTLOK:  cpu time    0.2377: real time    0.2377
    SETDIJ:  cpu time    0.0059: real time    0.0059
     EDDAV:  cpu time    0.7557: real time    0.7558
       DOS:  cpu time    0.0002: real time    0.0002
    CHARGE:  cpu time    0.0828: real time    0.0828
    MIXING:  cpu time    0.0073: real time    0.0073
    --------------------------------------------
      LOOP:  cpu time    1.0897: real time    1.0897

 eigenvalue-minimisations  :   764
 total energy-change (2. order) : 0.7819336E-03  (-0.2569411E-02)
 number of electron      34.0000006 magnetization 
 augmentation part        3.8506978 magnetization 

 DIPCOR: dipole corrections for dipol
 direction  3 min pos   196,
 dipolmoment           0.000000      0.000000     -0.039822 electrons x Angstroem
 Tr[quadrupol]       -79.278986

 energy correction for charged system         0.000000 eV
 dipol+quadrupol energy correction           -0.000627 eV
 added-field ion interaction         -0.809810 eV  (added to PSCEN)


 Broyden mixing:
  rms(total) = 0.13497E-01    rms(broyden)= 0.13494E-01
  rms(prec ) = 0.15392E-01
  weight for this iteration     100.00

 eigenvalues of (default mixing * dielectric matrix)
  average eigenvalue GAMMA=   1.2198
  2.4746  1.4361  0.9012  0.9012  0.3859

 Free energy of the ion-electron system (eV)
  ---------------------------------------------------
  alpha Z        PSCENC =        41.63884446
  Ewald energy   TEWEN  =      5970.85761313
  -Hartree energ DENC   =     -8148.29828568
  -exchange      EXHF   =         0.00000000
  -V(xc)+E(xc)   XCENC  =        36.86421241
  PAW double counting   =      2755.50923228    -2698.86804835
  entropy T*S    EENTRO =        -0.00000000
  eigenvalues    EBANDS =      -210.56883135
  atomic energy  EATOM  =      2236.30457717
  Solvation  Ediel_sol  =         0.00000000
  ---------------------------------------------------
  free energy    TOTEN  =       -16.56068593 eV

  energy without entropy =      -16.56068593  energy(sigma->0) =      -16.56068593


--------------------------------------------------------------------------------------------------------




--------------------------------------- Iteration      1(  11)  ---------------------------------------


    POTLOK:  cpu time    0.2389: real time    0.2389
    SETDIJ:  cpu time    0.0059: real time    0.0059
     EDDAV:  cpu time    0.7789: real time    0.7789
       DOS:  cpu time    0.0002: real time    0.0002
    CHARGE:  cpu time    0.0836: real time    0.0836
    MIXING:  cpu time    0.0073: real time    0.0073
    --------------------------------------------
      LOOP:  cpu time    1.1149: real time    1.1149

 eigenvalue-minimisations  :   794
 total energy-change (2. order) : 0.4220277E-04  (-0.1957593E-03)
 number of electron      34.0000006 magnetization 
 augmentation part        3.8478635 magnetization 

 DIPCOR: dipole corrections for dipol
 direction  3 min pos   198,
 dipolmoment           0.000000      0.000000     -0.039085 electrons x Angstroem
 Tr[quadrupol]       -79.277155

 energy correction for charged system         0.000000 eV
 dipol+quadrupol energy correction           -0.000604 eV
 added-field ion interaction         -0.970097 eV  (added to PSCEN)


 Broyden mixing:
  rms(total) = 0.83215E-02    rms(broyden)= 0.83196E-02
  rms(prec ) = 0.86488E-02
  weight for this iteration     100.00

 eigenvalues of (default mixing * dielectric matrix)
  average eigenvalue GAMMA=   1.2385
  2.3976  1.9534  0.3862  0.8616  0.8616  0.9708

 Free energy of the ion-electron system (eV)
  ---------------------------------------------------
  alpha Z        PSCENC =        41.47858045
  Ewald energy   TEWEN  =      5970.85761313
  -Hartree energ DENC   =     -8148.68014899
  -exchange      EXHF   =         0.00000000
  -V(xc)+E(xc)   XCENC  =        36.87050855
  PAW double counting   =      2754.49364762    -2697.84329588
  entropy T*S    EENTRO =        -0.00000000
  eigenvalues    EBANDS =      -210.04212578
  atomic energy  EATOM  =      2236.30457717
  Solvation  Ediel_sol  =         0.00000000
  ---------------------------------------------------
  free energy    TOTEN  =       -16.56064373 eV

  energy without entropy =      -16.56064373  energy(sigma->0) =      -16.56064373


--------------------------------------------------------------------------------------------------------




--------------------------------------- Iteration      1(  12)  ---------------------------------------


    POTLOK:  cpu time    0.2393: real time    0.2393
    SETDIJ:  cpu time    0.0059: real time    0.0059
     EDDAV:  cpu time    0.8068: real time    0.8068
       DOS:  cpu time    0.0002: real time    0.0002
    --------------------------------------------
      LOOP:  cpu time    1.0521: real time    1.0521

 eigenvalue-minimisations  :   844
 total energy-change (2. order) :-0.2640625E-04  (-0.1695110E-04)
 number of electron      34.0000006 magnetization 
 augmentation part        3.8478635 magnetization 

 DIPCOR: dipole corrections for dipol
 direction  3 min pos   199,
 dipolmoment           0.000000      0.000000     -0.038682 electrons x Angstroem
 Tr[quadrupol]       -79.276411

 energy correction for charged system         0.000000 eV
 dipol+quadrupol energy correction           -0.000592 eV
 added-field ion interaction         -1.046820 eV  (added to PSCEN)


 Free energy of the ion-electron system (eV)
  ---------------------------------------------------
  alpha Z        PSCENC =        41.40187001
  Ewald energy   TEWEN  =      5970.85761313
  -Hartree energ DENC   =     -8148.91438190
  -exchange      EXHF   =         0.00000000
  -V(xc)+E(xc)   XCENC  =        36.87505089
  PAW double counting   =      2752.09480663    -2695.43285793
  entropy T*S    EENTRO =        -0.00000000
  eigenvalues    EBANDS =      -209.74734813
  atomic energy  EATOM  =      2236.30457717
  Solvation  Ediel_sol  =         0.00000000
  ---------------------------------------------------
  free energy    TOTEN  =       -16.56067013 eV

  energy without entropy =      -16.56067013  energy(sigma->0) =      -16.56067013


--------------------------------------------------------------------------------------------------------




 average (electrostatic) potential at core
  the test charge radii are     0.9406  1.0178  1.2059
  (the norm of the test charge is              1.0000)
       1 -97.7856       2 -67.9377       3 -75.1099       4 -75.0613
 
 
 
 E-fermi :  -1.4460     XC(G=0):  -4.3493     alpha+bet : -3.9625


 k-point     1 :       0.0000    0.0000    0.0000
  band No.  band energies     occupation 
      1     -17.6281      2.00000
      2     -17.4906      2.00000
      3      -8.1241      2.00000
      4      -6.8810      2.00000
      5      -6.8810      2.00000
      6      -6.8729      2.00000
      7      -5.8550      2.00000
      8      -5.8550      2.00000
      9      -4.4476      2.00000
     10      -4.4475      2.00000
     11      -3.8178      2.00000
     12      -2.8436      2.00000
     13      -2.8436      2.00000
     14      -2.7451      2.00000
     15      -2.1556      2.00000
     16      -2.1556      2.00000
     17      -2.0788      2.00000
     18      -0.2657      0.00000
     19      -0.2657      0.00000
     20       2.1453      0.00000
     21       3.2088      0.00000
     22       3.8131      0.00000

 k-point     2 :       0.2500    0.0000    0.0000
  band No.  band energies     occupation 
      1     -17.3733      2.00000
      2     -17.2760      2.00000
      3      -7.7492      2.00000
      4      -7.0615      2.00000
      5      -6.7534      2.00000
      6      -6.6355      2.00000
      7      -6.2854      2.00000
      8      -5.5094      2.00000
      9      -5.1556      2.00000
     10      -4.7202      2.00000
     11      -4.4651      2.00000
     12      -3.1096      2.00000
     13      -2.9206      2.00000
     14      -2.9096      2.00000
     15      -2.2691      2.00000
     16      -2.2396      2.00000
     17      -1.9663      2.00000
     18      -0.1905      0.00000
     19       0.2897      0.00000
     20       3.6084      0.00000
     21       3.9788      0.00000
     22       4.4817      0.00000

 k-point     3 :       0.5000    0.0000    0.0000
  band No.  band energies     occupation 
      1     -17.1474      2.00000
      2     -16.9934      2.00000
      3      -7.8571      2.00000
      4      -7.5606      2.00000
      5      -6.5744      2.00000
      6      -6.5528      2.00000
      7      -6.1400      2.00000
      8      -5.8120      2.00000
      9      -4.7546      2.00000
     10      -4.5347      2.00000
     11      -3.5119      2.00000
     12      -3.3257      2.00000
     13      -3.2441      2.00000
     14      -2.9927      2.00000
     15      -2.9341      2.00000
     16      -2.9249      2.00000
     17      -2.4556      2.00000
     18      -0.2080      0.00000
     19       1.2358      0.00000
     20       2.3542      0.00000
     21       4.5421      0.00000
     22       4.8364      0.00000

 k-point     4 :      -0.2500   -0.0000    0.0000
  band No.  band energies     occupation 
      1     -17.3733      2.00000
      2     -17.2760      2.00000
      3      -7.7492      2.00000
      4      -7.0615      2.00000
      5      -6.7534      2.00000
      6      -6.6355      2.00000
      7      -6.2854      2.00000
      8      -5.5094      2.00000
      9      -5.1556      2.00000
     10      -4.7202      2.00000
     11      -4.4651      2.00000
     12      -3.1096      2.00000
     13      -2.9206      2.00000
     14      -2.9096      2.00000
     15      -2.2691      2.00000
     16      -2.2396      2.00000
     17      -1.9663      2.00000
     18      -0.1905      0.00000
     19       0.2897      0.00000
     20       3.6084      0.00000
     21       3.9788      0.00000
     22       4.4817      0.00000

 k-point     5 :       0.0000    0.2500    0.0000
  band No.  band energies     occupation 
      1     -17.3733      2.00000
      2     -17.2760      2.00000
      3      -7.7492      2.00000
      4      -7.0615      2.00000
      5      -6.7534      2.00000
      6      -6.6355      2.00000
      7      -6.2854      2.00000
      8      -5.5094      2.00000
      9      -5.1556      2.00000
     10      -4.7202      2.00000
     11      -4.4651      2.00000
     12      -3.1096      2.00000
     13      -2.9206      2.00000
     14      -2.9096      2.00000
     15      -2.2691      2.00000
     16      -2.2396      2.00000
     17      -1.9663      2.00000
     18      -0.1905      0.00000
     19       0.2897      0.00000
     20       3.6084      0.00000
     21       3.9788      0.00000
     22       4.4817      0.00000

 k-point     6 :       0.2500    0.2500    0.0000
  band No.  band energies     occupation 
      1     -17.1503      2.00000
      2     -16.9959      2.00000
      3      -7.5396      2.00000
      4      -7.0826      2.00000
      5      -7.0149      2.00000
      6      -6.3159      2.00000
      7      -6.2111      2.00000
      8      -5.8802      2.00000
      9      -5.3817      2.00000
     10      -5.1478      2.00000
     11      -3.8189      2.00000
     12      -3.4291      2.00000
     13      -3.1961      2.00000
     14      -2.9851      2.00000
     15      -2.9291      2.00000
     16      -2.3295      2.00000
     17      -2.0108      2.00000
     18      -0.2579      0.00000
     19       1.3150      0.00000
     20       3.0783      0.00000
     21       4.5960      0.00000
     22       5.5536      0.00000

 k-point     7 :       0.5000    0.2500    0.0000
  band No.  band energies     occupation 
      1     -17.1503      2.00000
      2     -16.9959      2.00000
      3      -7.5396      2.00000
      4      -7.0826      2.00000
      5      -7.0149      2.00000
      6      -6.3159      2.00000
      7      -6.2111      2.00000
      8      -5.8802      2.00000
      9      -5.3817      2.00000
     10      -5.1478      2.00000
     11      -3.8189      2.00000
     12      -3.4291      2.00000
     13      -3.1961      2.00000
     14      -2.9851      2.00000
     15      -2.9291      2.00000
     16      -2.3295      2.00000
     17      -2.0108      2.00000
     18      -0.2579      0.00000
     19       1.3150      0.00000
     20       3.0783      0.00000
     21       4.5960      0.00000
     22       5.5536      0.00000

 k-point     8 :      -0.2500    0.2500    0.0000
  band No.  band energies     occupation 
      1     -17.3733      2.00000
      2     -17.2760      2.00000
      3      -7.7492      2.00000
      4      -7.0615      2.00000
      5      -6.7534      2.00000
      6      -6.6355      2.00000
      7      -6.2854      2.00000
      8      -5.5094      2.00000
      9      -5.1556      2.00000
     10      -4.7202      2.00000
     11      -4.4651      2.00000
     12      -3.1096      2.00000
     13      -2.9206      2.00000
     14      -2.9096      2.00000
     15      -2.2691      2.00000
     16      -2.2396      2.00000
     17      -1.9663      2.00000
     18      -0.1905      0.00000
     19       0.2897      0.00000
     20       3.6084      0.00000
     21       3.9788      0.00000
     22       4.4817      0.00000

 k-point     9 :       0.0000    0.5000    0.0000
  band No.  band energies     occupation 
      1     -17.1474      2.00000
      2     -16.9934      2.00000
      3      -7.8571      2.00000
      4      -7.5606      2.00000
      5      -6.5744      2.00000
      6      -6.5528      2.00000
      7      -6.1400      2.00000
      8      -5.8120      2.00000
      9      -4.7546      2.00000
     10      -4.5347      2.00000
     11      -3.5119      2.00000
     12      -3.3257      2.00000
     13      -3.2441      2.00000
     14      -2.9927      2.00000
     15      -2.9341      2.00000
     16      -2.9249      2.00000
     17      -2.4556      2.00000
     18      -0.2080      0.00000
     19       1.2358      0.00000
     20       2.3542      0.00000
     21       4.5421      0.00000
     22       4.8364      0.00000

 k-point    10 :       0.2500    0.5000    0.0000
  band No.  band energies     occupation 
      1     -17.1503      2.00000
      2     -16.9959      2.00000
      3      -7.5396      2.00000
      4      -7.0826      2.00000
      5      -7.0149      2.00000
      6      -6.3159      2.00000
      7      -6.2111      2.00000
      8      -5.8802      2.00000
      9      -5.3817      2.00000
     10      -5.1478      2.00000
     11      -3.8189      2.00000
     12      -3.4291      2.00000
     13      -3.1961      2.00000
     14      -2.9851      2.00000
     15      -2.9291      2.00000
     16      -2.3295      2.00000
     17      -2.0108      2.00000
     18      -0.2579      0.00000
     19       1.3150      0.00000
     20       3.0783      0.00000
     21       4.5960      0.00000
     22       5.5536      0.00000

 k-point    11 :       0.5000    0.5000    0.0000
  band No.  band energies     occupation 
      1     -17.1474      2.00000
      2     -16.9934      2.00000
      3      -7.8571      2.00000
      4      -7.5606      2.00000
      5      -6.5744      2.00000
      6      -6.5528      2.00000
      7      -6.1400      2.00000
      8      -5.8120      2.00000
      9      -4.7546      2.00000
     10      -4.5347      2.00000
     11      -3.5119      2.00000
     12      -3.3257      2.00000
     13      -3.2441      2.00000
     14      -2.9927      2.00000
     15      -2.9341      2.00000
     16      -2.9249      2.00000
     17      -2.4556      2.00000
     18      -0.2080      0.00000
     19       1.2358      0.00000
     20       2.3542      0.00000
     21       4.5421      0.00000
     22       4.8364      0.00000

 k-point    12 :      -0.2500    0.5000    0.0000
  band No.  band energies     occupation 
      1     -17.1503      2.00000
      2     -16.9959      2.00000
      3      -7.5396      2.00000
      4      -7.0826      2.00000
      5      -7.0149      2.00000
      6      -6.3159      2.00000
      7      -6.2111      2.00000
      8      -5.8802      2.00000
      9      -5.3817      2.00000
     10      -5.1478      2.00000
     11      -3.8189      2.00000
     12      -3.4291      2.00000
     13      -3.1961      2.00000
     14      -2.9851      2.00000
     15      -2.9291      2.00000
     16      -2.3295      2.00000
     17      -2.0108      2.00000
     18      -0.2579      0.00000
     19       1.3150      0.00000
     20       3.0783      0.00000
     21       4.5960      0.00000
     22       5.5536      0.00000

 k-point    13 :      -0.0000   -0.2500    0.0000
  band No.  band energies     occupation 
      1     -17.3733      2.00000
      2     -17.2760      2.00000
      3      -7.7492      2.00000
      4      -7.0615      2.00000
      5      -6.7534      2.00000
      6      -6.6355      2.00000
      7      -6.2854      2.00000
      8      -5.5094      2.00000
      9      -5.1556      2.00000
     10      -4.7202      2.00000
     11      -4.4651      2.00000
     12      -3.1096      2.00000
     13      -2.9206      2.00000
     14      -2.9096      2.00000
     15      -2.2691      2.00000
     16      -2.2396      2.00000
     17      -1.9663      2.00000
     18      -0.1905      0.00000
     19       0.2897      0.00000
     20       3.6084      0.00000
     21       3.9788      0.00000
     22       4.4817      0.00000

 k-point    14 :       0.2500   -0.2500    0.0000
  band No.  band energies     occupation 
      1     -17.3733      2.00000
      2     -17.2760      2.00000
      3      -7.7492      2.00000
      4      -7.0615      2.00000
      5      -6.7534      2.00000
      6      -6.6355      2.00000
      7      -6.2854      2.00000
      8      -5.5094      2.00000
      9      -5.1556      2.00000
     10      -4.7202      2.00000
     11      -4.4651      2.00000
     12      -3.1096      2.00000
     13      -2.9206      2.00000
     14      -2.9096      2.00000
     15      -2.2691      2.00000
     16      -2.2396      2.00000
     17      -1.9663      2.00000
     18      -0.1905      0.00000
     19       0.2897      0.00000
     20       3.6084      0.00000
     21       3.9788      0.00000
     22       4.4817      0.00000

 k-point    15 :       0.5000   -0.2500    0.0000
  band No.  band energies     occupation 
      1     -17.1503      2.00000
      2     -16.9959      2.00000
      3      -7.5396      2.00000
      4      -7.0826      2.00000
      5      -7.0149      2.00000
      6      -6.3159      2.00000
      7      -6.2111      2.00000
      8      -5.8802      2.00000
      9      -5.3817      2.00000
     10      -5.1478      2.00000
     11      -3.8189      2.00000
     12      -3.4291      2.00000
     13      -3.1961      2.00000
     14      -2.9851      2.00000
     15      -2.9291      2.00000
     16      -2.3295      2.00000
     17      -2.0108      2.00000
     18      -0.2579      0.00000
     19       1.3150      0.00000
     20       3.0783      0.00000
     21       4.5960      0.00000
     22       5.5536      0.00000

 k-point    16 :      -0.2500   -0.2500    0.0000
  band No.  band energies     occupation 
      1     -17.1503      2.00000
      2     -16.9959      2.00000
      3      -7.5396      2.00000
      4      -7.0826      2.00000
      5      -7.0149      2.00000
      6      -6.3159      2.00000
      7      -6.2111      2.00000
      8      -5.8802      2.00000
      9      -5.3817      2.00000
     10      -5.1478      2.00000
     11      -3.8189      2.00000
     12      -3.4291      2.00000
     13      -3.1961      2.00000
     14      -2.9851      2.00000
     15      -2.9291      2.00000
     16      -2.3295      2.00000
     17      -2.0108      2.00000
     18      -0.2579      0.00000
     19       1.3150      0.00000
     20       3.0783      0.00000
     21       4.5960      0.00000
     22       5.5536      0.00000


--------------------------------------------------------------------------------------------------------


 soft charge-density along one line, spin component           1
         0         1         2         3         4         5         6         7         8         9
 total charge-density along one line
 
 pseudopotential strength for first ion, spin component:           1
 49.275  51.714  -0.000   0.038  -0.000  -0.000   0.047  -0.000
 51.714  54.277  -0.000   0.040  -0.000  -0.000   0.050  -0.000
 -0.000  -0.000   9.299  -0.000  -0.000  11.526  -0.000  -0.000
  0.038   0.040  -0.000   9.298  -0.000  -0.000  11.525  -0.000
 -0.000  -0.000  -0.000  -0.000   9.299  -0.000  -0.000  11.526
 -0.000  -0.000  11.526  -0.000  -0.000  14.303  -0.000  -0.000
  0.047   0.050  -0.000  11.525  -0.000  -0.000  14.301  -0.000
 -0.000  -0.000  -0.000  -0.000  11.526  -0.000  -0.000  14.303
 total augmentation occupancy for first ion, spin component:           1
  8.339  -6.315  -0.000  -3.012   0.000   0.000   1.256  -0.000
 -6.315   6.243   0.000   2.821  -0.000  -0.000  -1.243   0.000
 -0.000   0.000   3.552   0.000   0.000  -1.041  -0.000  -0.000
 -3.012   2.821   0.000   3.345  -0.000   0.000  -0.912   0.000
  0.000  -0.000   0.000  -0.000   3.552  -0.000   0.000  -1.041
  0.000  -0.000  -1.041   0.000  -0.000   0.469  -0.000   0.000
  1.256  -1.243  -0.000  -0.912   0.000  -0.000   0.421  -0.000
 -0.000   0.000  -0.000   0.000  -1.041   0.000  -0.000   0.469


------------------------ aborting loop because EDIFF is reached ----------------------------------------


    CHARGE:  cpu time    0.0824: real time    0.0824
    FORLOC:  cpu time    0.0155: real time    0.0155
    FORNL :  cpu time    0.0969: real time    0.0969
    STRESS:  cpu time    0.5022: real time    0.5022
    FORCOR:  cpu time    0.2191: real time    0.2191
    FORHAR:  cpu time    0.0436: real time    0.0436
    MIXING:  cpu time    0.0090: real time    0.0090
    OFIELD:  cpu time    0.0001: real time    0.0000

 ---------------------------------------------------------------------------------------------

         DFTD3 V3.0 Rev 1        
 IVDW         = 11
 DF pbe       
 parameters
 VDW_S6       =    1.0000
 VDW_S8       =    0.7220
 VDW_SR       =    1.2170
 rs18     =    1.0000
 alpha6   =   14.0000
 alpha8   =   16.0000
 k1-k3    =   16.0000    1.3333   -4.0000
 VDW_RADIUS   =   50.2022 A
 VDW_CNRADIUS =   21.1671 A
 Edisp (eV)   -1.23810

 E6    (eV) :    -0.3578
 E8    (eV) :    -0.8803
 % E8        : 71.10
    FORVDW:  cpu time    0.0165: real time    0.0165

  FORCE on cell =-STRESS in cart. coord.  units (eV):
  Direction    XX          YY          ZZ          XY          YZ          ZX
  --------------------------------------------------------------------------------------
  Alpha Z    42.44928    42.44928    42.44928
  Ewald    7488.60013  7488.59935 -9006.34232     0.00001    -0.00035     0.00005
  Hartree  7967.18396  7967.18376 -7784.01154     0.00001    -0.00015     0.00002
  E(xc)    -141.05533  -141.05534  -141.51216    -0.00000     0.00000     0.00000
  Local  -16083.21886-16083.21797 16156.46769     0.00003     0.00050    -0.00002
  n-local   142.11374   142.11373   143.57641    -0.00002     0.00000    -0.00000
  augment    78.79443    78.79440    79.69251    -0.00003     0.00001    -0.00001
  Kinetic   505.99092   505.99108   509.82709     0.00001     0.00004    -0.00001
  Fock        0.00000     0.00000     0.00000     0.00000     0.00000     0.00000
  vdW        -0.77337    -0.77336    -0.23493     0.00000     0.00000    -0.00000
  -------------------------------------------------------------------------------------
  Total       0.08490     0.08494    -0.08797     0.00001     0.00005     0.00002
  in kB       0.59486     0.59516    -0.61636     0.00005     0.00038     0.00017
  external pressure =        0.19 kB  Pullay stress =        0.00 kB


 VOLUME and BASIS-vectors are now :
 -----------------------------------------------------------------------------
  energy-cutoff  :      300.00
  volume of cell :      228.66
      direct lattice vectors                 reciprocal lattice vectors
     3.633224859 -0.036406390  0.000000000     0.276802112  0.156135111  0.000000000
    -1.785084008  3.164663104  0.000000000     0.003184341  0.317785585  0.000000000
     0.000000000  0.000000000 20.000000000     0.000000000  0.000000000  0.050000000

  length of vectors
     3.633407257  3.633403016 20.000000000     0.317801168  0.317801539  0.050000000


 FORCES acting on ions
    electron-ion (+dipol)            ewald-force                    non-local-force                 convergence-correction
 -----------------------------------------------------------------------------------------------
   0.132E-03 -.283E-03 0.994E+03   -.171E-03 0.593E-04 -.999E+03   0.206E-04 0.121E-03 0.558E+01   -.101E-05 0.103E-03 -.102E+00
   0.602E-04 -.277E-04 -.100E+04   -.114E-03 0.218E-05 0.101E+04   0.206E-04 0.115E-04 -.271E+01   0.279E-04 0.140E-04 0.112E+00
   -.610E-04 0.275E-03 -.569E+03   0.107E-03 -.187E-03 0.562E+03   0.122E-05 -.223E-04 0.658E+01   -.517E-04 -.754E-04 0.153E+00
   -.294E-03 -.327E-05 0.574E+03   0.179E-03 0.126E-03 -.568E+03   0.315E-04 0.117E-04 -.647E+01   0.831E-04 -.131E-03 -.906E-01
 -----------------------------------------------------------------------------------------------
   -.163E-03 -.386E-04 -.306E+01   -.138E-14 -.271E-14 0.000E+00   0.739E-04 0.122E-03 0.298E+01   0.583E-04 -.886E-04 0.729E-01
 
 
 POSITION                                       TOTAL-FORCE (eV/Angst)
 -----------------------------------------------------------------------------------
     -0.89235      1.58221      3.36752        -0.000012      0.000002     -0.012297
     -0.89235      1.58220      7.71376         0.000002      0.000002      0.014756
      0.91375      0.51518      6.20861         0.000003     -0.000008      0.023406
      0.93477      2.61282      4.71478         0.000007      0.000005     -0.025865
 -----------------------------------------------------------------------------------
    total drift:                               -0.000031     -0.000006     -0.003978


--------------------------------------------------------------------------------------------------------



  FREE ENERGIE OF THE ION-ELECTRON SYSTEM (eV)
  ---------------------------------------------------
  free  energy   TOTEN  =       -17.79876730 eV

  energy  without entropy=      -17.79876730  energy(sigma->0) =      -17.79876730
 


--------------------------------------------------------------------------------------------------------


    POTLOK:  cpu time    0.2426: real time    0.2426


--------------------------------------------------------------------------------------------------------


 Quasi-Newton relaxation of ions (Broydens 2nd method)
  g(Force)  = 0.765E-04   g(Stress)= 0.174E-03

 Reset! Starting new Quasi-Newton update for ions 


--------------------------------------------------------------------------------------------------------


    WAVPRE:  cpu time    0.7676: real time    0.7684
    FEWALD:  cpu time    0.0001: real time    0.0001
    GENKIN:  cpu time    0.0197: real time    0.0197
    ORTHCH:  cpu time    0.0153: real time    0.0153
     LOOP+:  cpu time   14.3126: real time   14.3143


--------------------------------------- Iteration      2(   1)  ---------------------------------------


    POTLOK:  cpu time    0.2409: real time    0.2410
    SETDIJ:  cpu time    0.0059: real time    0.0059
     EDDAV:  cpu time    0.7221: real time    0.7230
       DOS:  cpu time    0.0002: real time    0.0002
    CHARGE:  cpu time    0.0828: real time    0.0828
    MIXING:  cpu time    0.0070: real time    0.0070
    --------------------------------------------
      LOOP:  cpu time    1.0589: real time    1.0600

 eigenvalue-minimisations  :   710
 total energy-change (2. order) :-0.2868249E-02  (-0.4928719E-02)
 number of electron      34.0000006 magnetization 
 augmentation part        3.8594687 magnetization 

 DIPCOR: dipole corrections for dipol
 direction  3 min pos   199,
 dipolmoment           0.000000      0.000000     -0.038055 electrons x Angstroem
 Tr[quadrupol]       -79.454847

 energy correction for charged system         0.000000 eV
 dipol+quadrupol energy correction           -0.000572 eV
 added-field ion interaction         -1.027780 eV  (added to PSCEN)


 Broyden mixing:
  rms(total) = 0.20921E-01    rms(broyden)= 0.20912E-01
  rms(prec ) = 0.22419E-01
  weight for this iteration     100.00

 Free energy of the ion-electron system (eV)
  ---------------------------------------------------
  alpha Z        PSCENC =        41.33411237
  Ewald energy   TEWEN  =      5952.89720353
[...]
  band No.  band energies     occupation 
      1     -17.1332      2.00000
      2     -16.9895      2.00000
      3      -7.8388      2.00000
      4      -7.5406      2.00000
      5      -6.5570      2.00000
      6      -6.5354      2.00000
      7      -6.1243      2.00000
      8      -5.8036      2.00000
      9      -4.7397      2.00000
     10      -4.5203      2.00000
     11      -3.5029      2.00000
     12      -3.3173      2.00000
     13      -3.2365      2.00000
     14      -2.9900      2.00000
     15      -2.9284      2.00000
     16      -2.9167      2.00000
     17      -2.4520      2.00000
     18      -0.2124      0.00000
     19       1.2319      0.00000
     20       2.3489      0.00000
     21       4.5452      0.00000
     22       4.8361      0.00000

 k-point     4 :      -0.2500   -0.0000    0.0000
  band No.  band energies     occupation 
      1     -17.3587      2.00000
      2     -17.2683      2.00000
      3      -7.7304      2.00000
      4      -7.0427      2.00000
      5      -6.7352      2.00000
      6      -6.6185      2.00000
      7      -6.2719      2.00000
      8      -5.5030      2.00000
      9      -5.1390      2.00000
     10      -4.7044      2.00000
     11      -4.4515      2.00000
     12      -3.0998      2.00000
     13      -2.9129      2.00000
     14      -2.9035      2.00000
     15      -2.2649      2.00000
     16      -2.2383      2.00000
     17      -1.9653      2.00000
     18      -0.1952      0.00000
     19       0.2847      0.00000
     20       3.6050      0.00000
     21       3.9801      0.00000
     22       4.4898      0.00000

 k-point     5 :       0.0000    0.2500    0.0000
  band No.  band energies     occupation 
      1     -17.3587      2.00000
      2     -17.2683      2.00000
      3      -7.7304      2.00000
      4      -7.0427      2.00000
      5      -6.7352      2.00000
      6      -6.6185      2.00000
      7      -6.2719      2.00000
      8      -5.5030      2.00000
      9      -5.1390      2.00000
     10      -4.7044      2.00000
     11      -4.4515      2.00000
     12      -3.0998      2.00000
     13      -2.9129      2.00000
     14      -2.9035      2.00000
     15      -2.2649      2.00000
     16      -2.2384      2.00000
     17      -1.9653      2.00000
     18      -0.1952      0.00000
     19       0.2847      0.00000
     20       3.6050      0.00000
     21       3.9801      0.00000
     22       4.4898      0.00000

 k-point     6 :       0.2500    0.2500    0.0000
  band No.  band energies     occupation 
      1     -17.1361      2.00000
      2     -16.9918      2.00000
      3      -7.5217      2.00000
      4      -7.0657      2.00000
      5      -6.9968      2.00000
      6      -6.2988      2.00000
      7      -6.2006      2.00000
      8      -5.8677      2.00000
      9      -5.3634      2.00000
     10      -5.1321      2.00000
     11      -3.8061      2.00000
     12      -3.4187      2.00000
     13      -3.1893      2.00000
     14      -2.9760      2.00000
     15      -2.9231      2.00000
     16      -2.3278      2.00000
     17      -2.0119      2.00000
     18      -0.2639      0.00000
     19       1.3111      0.00000
     20       3.0733      0.00000
     21       4.5962      0.00000
     22       5.5550      0.00000

 k-point     7 :       0.5000    0.2500    0.0000
  band No.  band energies     occupation 
      1     -17.1361      2.00000
      2     -16.9918      2.00000
      3      -7.5217      2.00000
      4      -7.0657      2.00000
      5      -6.9968      2.00000
      6      -6.2988      2.00000
      7      -6.2006      2.00000
      8      -5.8677      2.00000
      9      -5.3634      2.00000
     10      -5.1321      2.00000
     11      -3.8061      2.00000
     12      -3.4187      2.00000
     13      -3.1893      2.00000
     14      -2.9760      2.00000
     15      -2.9231      2.00000
     16      -2.3278      2.00000
     17      -2.0119      2.00000
     18      -0.2639      0.00000
     19       1.3111      0.00000
     20       3.0733      0.00000
     21       4.5962      0.00000
     22       5.5550      0.00000

 k-point     8 :      -0.2500    0.2500    0.0000
  band No.  band energies     occupation 
      1     -17.3587      2.00000
      2     -17.2683      2.00000
      3      -7.7304      2.00000
      4      -7.0427      2.00000
      5      -6.7352      2.00000
      6      -6.6185      2.00000
      7      -6.2719      2.00000
      8      -5.5030      2.00000
      9      -5.1390      2.00000
     10      -4.7044      2.00000
     11      -4.4515      2.00000
     12      -3.0998      2.00000
     13      -2.9129      2.00000
     14      -2.9035      2.00000
     15      -2.2649      2.00000
     16      -2.2383      2.00000
     17      -1.9653      2.00000
     18      -0.1952      0.00000
     19       0.2847      0.00000
     20       3.6050      0.00000
     21       3.9801      0.00000
     22       4.4898      0.00000

 k-point     9 :       0.0000    0.5000    0.0000
  band No.  band energies     occupation 
      1     -17.1332      2.00000
      2     -16.9895      2.00000
      3      -7.8388      2.00000
      4      -7.5406      2.00000
      5      -6.5570      2.00000
      6      -6.5354      2.00000
      7      -6.1243      2.00000
      8      -5.8036      2.00000
      9      -4.7396      2.00000
     10      -4.5203      2.00000
     11      -3.5029      2.00000
     12      -3.3173      2.00000
     13      -3.2365      2.00000
     14      -2.9900      2.00000
     15      -2.9284      2.00000
     16      -2.9167      2.00000
     17      -2.4520      2.00000
     18      -0.2124      0.00000
     19       1.2319      0.00000
     20       2.3489      0.00000
     21       4.5452      0.00000
     22       4.8361      0.00000

 k-point    10 :       0.2500    0.5000    0.0000
  band No.  band energies     occupation 
      1     -17.1361      2.00000
      2     -16.9918      2.00000
      3      -7.5217      2.00000
      4      -7.0657      2.00000
      5      -6.9968      2.00000
      6      -6.2988      2.00000
      7      -6.2006      2.00000
      8      -5.8677      2.00000
      9      -5.3634      2.00000
     10      -5.1321      2.00000
     11      -3.8061      2.00000
     12      -3.4187      2.00000
     13      -3.1893      2.00000
     14      -2.9760      2.00000
     15      -2.9231      2.00000
     16      -2.3278      2.00000
     17      -2.0119      2.00000
     18      -0.2639      0.00000
     19       1.3111      0.00000
     20       3.0733      0.00000
     21       4.5962      0.00000
     22       5.5550      0.00000

 k-point    11 :       0.5000    0.5000    0.0000
  band No.  band energies     occupation 
      1     -17.1332      2.00000
      2     -16.9895      2.00000
      3      -7.8388      2.00000
      4      -7.5406      2.00000
      5      -6.5570      2.00000
      6      -6.5354      2.00000
      7      -6.1243      2.00000
      8      -5.8035      2.00000
      9      -4.7397      2.00000
     10      -4.5203      2.00000
     11      -3.5029      2.00000
     12      -3.3173      2.00000
     13      -3.2365      2.00000
     14      -2.9900      2.00000
     15      -2.9284      2.00000
     16      -2.9167      2.00000
     17      -2.4520      2.00000
     18      -0.2124      0.00000
     19       1.2319      0.00000
     20       2.3489      0.00000
     21       4.5452      0.00000
     22       4.8361      0.00000

 k-point    12 :      -0.2500    0.5000    0.0000
  band No.  band energies     occupation 
      1     -17.1361      2.00000
      2     -16.9918      2.00000
      3      -7.5217      2.00000
      4      -7.0657      2.00000
      5      -6.9968      2.00000
      6      -6.2988      2.00000
      7      -6.2006      2.00000
      8      -5.8677      2.00000
      9      -5.3634      2.00000
     10      -5.1321      2.00000
     11      -3.8061      2.00000
     12      -3.4187      2.00000
     13      -3.1893      2.00000
     14      -2.9760      2.00000
     15      -2.9231      2.00000
     16      -2.3278      2.00000
     17      -2.0119      2.00000
     18      -0.2639      0.00000
     19       1.3111      0.00000
     20       3.0733      0.00000
     21       4.5962      0.00000
     22       5.5550      0.00000

 k-point    13 :      -0.0000   -0.2500    0.0000
  band No.  band energies     occupation 
      1     -17.3587      2.00000
      2     -17.2683      2.00000
      3      -7.7304      2.00000
      4      -7.0427      2.00000
      5      -6.7352      2.00000
      6      -6.6185      2.00000
      7      -6.2719      2.00000
      8      -5.5030      2.00000
      9      -5.1390      2.00000
     10      -4.7044      2.00000
     11      -4.4515      2.00000
     12      -3.0998      2.00000
     13      -2.9129      2.00000
     14      -2.9035      2.00000
     15      -2.2649      2.00000
     16      -2.2384      2.00000
     17      -1.9653      2.00000
     18      -0.1952      0.00000
     19       0.2847      0.00000
     20       3.6050      0.00000
     21       3.9801      0.00000
     22       4.4898      0.00000

 k-point    14 :       0.2500   -0.2500    0.0000
  band No.  band energies     occupation 
      1     -17.3587      2.00000
      2     -17.2683      2.00000
      3      -7.7304      2.00000
      4      -7.0427      2.00000
      5      -6.7352      2.00000
      6      -6.6185      2.00000
      7      -6.2719      2.00000
      8      -5.5030      2.00000
      9      -5.1390      2.00000
     10      -4.7044      2.00000
     11      -4.4515      2.00000
     12      -3.0998      2.00000
     13      -2.9129      2.00000
     14      -2.9035      2.00000
     15      -2.2649      2.00000
     16      -2.2383      2.00000
     17      -1.9653      2.00000
     18      -0.1952      0.00000
     19       0.2847      0.00000
     20       3.6050      0.00000
     21       3.9801      0.00000
     22       4.4898      0.00000

 k-point    15 :       0.5000   -0.2500    0.0000
  band No.  band energies     occupation 
      1     -17.1361      2.00000
      2     -16.9918      2.00000
      3      -7.5217      2.00000
      4      -7.0657      2.00000
      5      -6.9968      2.00000
      6      -6.2988      2.00000
      7      -6.2006      2.00000
      8      -5.8677      2.00000
      9      -5.3634      2.00000
     10      -5.1321      2.00000
     11      -3.8061      2.00000
     12      -3.4187      2.00000
     13      -3.1893      2.00000
     14      -2.9760      2.00000
     15      -2.9231      2.00000
     16      -2.3278      2.00000
     17      -2.0119      2.00000
     18      -0.2639      0.00000
     19       1.3111      0.00000
     20       3.0733      0.00000
     21       4.5962      0.00000
     22       5.5550      0.00000

 k-point    16 :      -0.2500   -0.2500    0.0000
  band No.  band energies     occupation 
      1     -17.1361      2.00000
      2     -16.9918      2.00000
      3      -7.5217      2.00000
      4      -7.0657      2.00000
      5      -6.9968      2.00000
      6      -6.2988      2.00000
      7      -6.2006      2.00000
      8      -5.8677      2.00000
      9      -5.3634      2.00000
     10      -5.1321      2.00000
     11      -3.8061      2.00000
     12      -3.4187      2.00000
     13      -3.1893      2.00000
     14      -2.9760      2.00000
     15      -2.9231      2.00000
     16      -2.3278      2.00000
     17      -2.0119      2.00000
     18      -0.2639      0.00000
     19       1.3111      0.00000
     20       3.0733      0.00000
     21       4.5962      0.00000
     22       5.5550      0.00000


--------------------------------------------------------------------------------------------------------


 soft charge-density along one line, spin component           1
         0         1         2         3         4         5         6         7         8         9
 total charge-density along one line
 
 pseudopotential strength for first ion, spin component:           1
 49.270  51.709   0.000   0.038  -0.000   0.000   0.047  -0.000
 51.709  54.272   0.000   0.040  -0.000   0.000   0.049  -0.000
  0.000   0.000   9.299   0.000  -0.000  11.526   0.000  -0.000
  0.038   0.040   0.000   9.297   0.000   0.000  11.525   0.000
 -0.000  -0.000  -0.000   0.000   9.299  -0.000   0.000  11.526
  0.000   0.000  11.526   0.000  -0.000  14.303   0.000  -0.000
  0.047   0.049   0.000  11.525   0.000   0.000  14.301   0.000
 -0.000  -0.000  -0.000   0.000  11.526  -0.000   0.000  14.303
 total augmentation occupancy for first ion, spin component:           1
  8.368  -6.324  -0.000  -2.997  -0.000   0.000   1.248   0.000
 -6.324   6.234   0.000   2.809   0.000  -0.000  -1.236  -0.000
 -0.000   0.000   3.539   0.000  -0.000  -1.033  -0.000   0.000
 -2.997   2.809   0.000   3.327   0.000  -0.000  -0.902  -0.000
 -0.000   0.000  -0.000   0.000   3.539   0.000  -0.000  -1.033
  0.000  -0.000  -1.033  -0.000   0.000   0.466   0.000  -0.000
  1.248  -1.236  -0.000  -0.902  -0.000   0.000   0.417   0.000
  0.000  -0.000   0.000  -0.000  -1.033  -0.000   0.000   0.466


------------------------ aborting loop because EDIFF is reached ----------------------------------------


    CHARGE:  cpu time    0.0860: real time    0.0860
    FORLOC:  cpu time    0.0156: real time    0.0156
    FORNL :  cpu time    0.0935: real time    0.0935
    STRESS:  cpu time    0.4993: real time    0.4998
    FORCOR:  cpu time    0.2324: real time    0.2324
    FORHAR:  cpu time    0.0458: real time    0.0458
    MIXING:  cpu time    0.0072: real time    0.0072
    OFIELD:  cpu time    0.0000: real time    0.0000

 ---------------------------------------------------------------------------------------------

         DFTD3 V3.0 Rev 1        
 Edisp (eV)   -1.23638

 E6    (eV) :    -0.3570
 E8    (eV) :    -0.8794
 % E8        : 71.12
    FORVDW:  cpu time    0.0157: real time    0.0157

  FORCE on cell =-STRESS in cart. coord.  units (eV):
  Direction    XX          YY          ZZ          XY          YZ          ZX
  --------------------------------------------------------------------------------------
  Alpha Z    42.36246    42.36246    42.36246
  Ewald    7469.39203  7469.39096 -8985.88629    -0.00013     0.00000    -0.00013
  Hartree  7948.08388  7948.08353 -7764.39295    -0.00004    -0.00001    -0.00004
  E(xc)    -141.02282  -141.02282  -141.48157    -0.00000    -0.00000     0.00000
  Local  -16044.67551-16044.67412 16116.50869     0.00024    -0.00003     0.00017
  n-local   141.89528   141.89524   143.39154    -0.00003     0.00002    -0.00001
  augment    78.82830    78.82827    79.71460    -0.00005    -0.00000     0.00000
  Kinetic   505.91025   505.91042   509.78003     0.00002     0.00003    -0.00001
  Fock        0.00000     0.00000     0.00000     0.00000     0.00000     0.00000
  vdW        -0.77824    -0.77824    -0.23830     0.00000     0.00000    -0.00000
  -------------------------------------------------------------------------------------
  Total      -0.00436    -0.00431    -0.24179     0.00000     0.00002    -0.00001
  in kB      -0.03047    -0.03010    -1.69074     0.00002     0.00013    -0.00009
  external pressure =       -0.58 kB  Pullay stress =        0.00 kB


 VOLUME and BASIS-vectors are now :
 -----------------------------------------------------------------------------
  energy-cutoff  :      300.00
  volume of cell :      229.13
      direct lattice vectors                 reciprocal lattice vectors
     3.636944978 -0.036443352  0.000000000     0.276518965  0.155975300  0.000000000
    -1.786911496  3.167904907  0.000000000     0.003181054  0.317460370  0.000000000
     0.000000000  0.000000000 20.000000000     0.000000000  0.000000000  0.050000000

  length of vectors
     3.637127560  3.637124440 20.000000000     0.317476034  0.317476307  0.050000000


 FORCES acting on ions
    electron-ion (+dipol)            ewald-force                    non-local-force                 convergence-correction
 -----------------------------------------------------------------------------------------------
   0.574E-04 0.302E-04 0.991E+03   -.703E-04 -.899E-05 -.997E+03   0.944E-05 -.146E-04 0.563E+01   0.539E-05 -.683E-05 -.768E-01
   0.119E-03 -.320E-04 -.100E+04   -.130E-03 0.356E-04 0.100E+04   0.371E-05 0.263E-05 -.271E+01   0.201E-05 0.167E-05 -.303E-01
   -.121E-03 0.881E-04 -.567E+03   0.109E-03 -.775E-04 0.561E+03   0.151E-04 -.123E-04 0.654E+01   -.189E-05 -.217E-05 -.377E+00
   -.879E-04 -.626E-04 0.574E+03   0.909E-04 0.508E-04 -.567E+03   0.281E-05 0.144E-04 -.641E+01   -.528E-05 0.332E-05 -.448E+00
 -----------------------------------------------------------------------------------------------
   -.333E-04 0.237E-04 -.211E+01   0.453E-15 0.113E-13 0.114E-12   0.311E-04 -.981E-05 0.305E+01   0.219E-06 -.401E-05 -.932E+00
 
 
 POSITION                                       TOTAL-FORCE (eV/Angst)
 -----------------------------------------------------------------------------------
     -0.89327      1.58383      3.36693         0.000002     -0.000003      0.007577
     -0.89327      1.58382      7.71448        -0.000005      0.000006      0.005931
      0.91468      0.51571      6.20974         0.000002     -0.000006     -0.030879
      0.93572      2.61550      4.71353         0.000001      0.000003      0.017371
 -----------------------------------------------------------------------------------
    total drift:                               -0.000002      0.000010      0.000324


--------------------------------------------------------------------------------------------------------



  FREE ENERGIE OF THE ION-ELECTRON SYSTEM (eV)
  ---------------------------------------------------
  free  energy   TOTEN  =       -17.79891860 eV

  energy  without entropy=      -17.79891860  energy(sigma->0) =      -17.79891860
 
 d Force = 0.9843617E-05[-0.568E-04, 0.765E-04]  d Energy = 0.1512964E-03-0.141E-03
 d Force = 0.2648697E+01[ 0.265E+01, 0.265E+01]  d Ewald  = 0.1796041E+02-0.153E+02


--------------------------------------------------------------------------------------------------------


    POTLOK:  cpu time    0.2402: real time    0.2402


--------------------------------------------------------------------------------------------------------


 Quasi-Newton relaxation of ions (Broydens 2nd method)
  g(Force)  = 0.650E-04   g(Stress)= 0.453E-06

 retain information from N=  1 steps
 eigenvalues of (default step * inverse Hessian matrix)
  average eigenvalue of G=   0.9509
 eigenvalue spectrum of G is  0.9509


--------------------------------------------------------------------------------------------------------


  
 reached required accuracy - stopping structural energy minimisation
 writing wavefunctions
     LOOP+:  cpu time    5.6679: real time    5.6722
    4ORBIT:  cpu time    0.0000: real time    0.0000

 total amount of memory used by VASP MPI-rank0    86942. kBytes
=======================================================================

   base      :      30000. kBytes
   nonl-proj :      18891. kBytes
   fftplans  :       9621. kBytes
   grid      :      20579. kBytes
   one-center:         62. kBytes
   wavefun   :       7789. kBytes
 
  
  
 General timing and accounting informations for this job:
 ========================================================
  
                  Total CPU time used (sec):       21.717
                            User time (sec):       21.105
                          System time (sec):        0.612
                         Elapsed time (sec):       21.978
  
                   Maximum memory used (kb):      194392.
                   Average memory used (kb):           0.
  
                          Minor page faults:        76757
                          Major page faults:            0
                 Voluntary context switches:           59
