unknown system                          
           1
     3.633225   -0.036406    0.000000
    -1.785084    3.164663    0.000000
     0.000000    0.000000   20.000000
   Cl   Br   Pt
   1   1   2
Direct configuration=     1
   0.00003299  0.49996177  0.16837592
   0.00003217  0.49995992  0.38568824
   0.33336544  0.16662755  0.31043029
   0.66669879  0.83329441  0.23573884
unknown system                          
           1
     3.636945   -0.036443    0.000000
    -1.786911    3.167905    0.000000
     0.000000    0.000000   20.000000
   Cl   Br   Pt
   1   1   2
Direct configuration=     2
   0.00003284  0.49996180  0.16834626
   0.00003221  0.49995994  0.38572384
   0.33336542  0.16662742  0.31048675
   0.66669892  0.83329448  0.23567645
