 running on    8 total cores
 distrk:  each k-point on    2 cores,    4 groups
 distr:  one band on    1 cores,    2 groups
 using from now: INCAR     
 vasp.5.4.4.16052018 (build Dec 07 2020 11:33:42) complex                       
  
 POSCAR found type information on POSCAR  Cl Br Pt
 POSCAR found :  3 types and       4 ions
 scaLAPACK will be used

 ----------------------------------------------------------------------------- 
|                                                                             |
|           W    W    AA    RRRRR   N    N  II  N    N   GGGG   !!!           |
|           W    W   A  A   R    R  NN   N  II  NN   N  G    G  !!!           |
|           W    W  A    A  R    R  N N  N  II  N N  N  G       !!!           |
|           W WW W  AAAAAA  RRRRR   N  N N  II  N  N N  G  GGG   !            |
|           WW  WW  A    A  R   R   N   NN  II  N   NN  G    G                |
|           W    W  A    A  R    R  N    N  II  N    N   GGGG   !!!           |
|                                                                             |
|      For optimal performance we recommend to set                            |
|        NCORE= 4 - approx SQRT( number of cores)                             |
|      NCORE specifies how many cores store one orbital (NPAR=cpu/NCORE).     |
|      This setting can  greatly improve the performance of VASP for DFT.     |
|      The default,   NCORE=1            might be grossly inefficient         |
|      on modern multi-core architectures or massively parallel machines.     |
|      Do your own testing !!!!                                               |
|      Unfortunately you need to use the default for GW and RPA calculations. |
|      (for HF NCORE is supported but not extensively tested yet)             |
|                                                                             |
 ----------------------------------------------------------------------------- 


 ----------------------------------------------------------------------------- 
|                                                                             |
|           W    W    AA    RRRRR   N    N  II  N    N   GGGG   !!!           |
|           W    W   A  A   R    R  NN   N  II  NN   N  G    G  !!!           |
|           W    W  A    A  R    R  N N  N  II  N N  N  G       !!!           |
|           W WW W  AAAAAA  RRRRR   N  N N  II  N  N N  G  GGG   !            |
|           WW  WW  A    A  R   R   N   NN  II  N   NN  G    G                |
|           W    W  A    A  R    R  N    N  II  N    N   GGGG   !!!           |
|                                                                             |
|      You have enabled k-point parallelism (KPAR>1).                         |
|      This developmental code was originally  written by Paul Kent at ORNL,  |
|      and carefully double checked in Vienna.                                |
|      GW as well as linear response parallelism added by Martijn Marsman     |
|      and Georg Kresse.                                                      |
|      Carefully verify results versus KPAR=1.                                |
|      Report problems to Paul Kent and Vienna.                               |
|                                                                             |
 ----------------------------------------------------------------------------- 

 LDA part: xc-table for Pade appr. of Perdew
 POSCAR, INCAR and KPOINTS ok, starting setup
 FFT: planning ...
 WAVECAR not read
 entering main loop
       N       E                     dE             d eps       ncg     rms          rms(c)
DAV:   1     0.223226037729E+03    0.22323E+03   -0.10052E+04   704   0.795E+02
DAV:   2     0.254789124048E+01   -0.22068E+03   -0.21187E+03  1084   0.204E+02
DAV:   3    -0.170622455729E+02   -0.19610E+02   -0.19346E+02   842   0.694E+01
DAV:   4    -0.174693348246E+02   -0.40709E+00   -0.40623E+00   862   0.114E+01
DAV:   5    -0.174789290138E+02   -0.95942E-02   -0.95923E-02   862   0.169E+00    0.154E+01
DAV:   6    -0.166159155143E+02    0.86301E+00   -0.23973E+00   880   0.137E+01    0.866E+00
DAV:   7    -0.166230597684E+02   -0.71443E-02   -0.55443E-01   806   0.777E+00    0.320E+00
DAV:   8    -0.166849334203E+02   -0.61874E-01   -0.44500E-01   842   0.962E+00    0.261E+00
DAV:   9    -0.165675417935E+02    0.11739E+00   -0.16768E-01   836   0.573E+00    0.415E-01
DAV:  10    -0.165667066513E+02    0.83514E-03   -0.25777E-02   800   0.102E+00    0.144E-01
DAV:  11    -0.165666319445E+02    0.74707E-04   -0.20382E-03   818   0.382E-01    0.818E-02
DAV:  12    -0.165666604503E+02   -0.28506E-04   -0.18775E-04   814   0.967E-02
   1 F= -.17795019E+02 E0= -.17795019E+02  d E =-.177950E+02
stress tensor set to zero in row and column 1
stress tensor set to zero in row and column 3
 BRION: g(F)=  0.186E-02 g(S)=  0.210E-02
 bond charge predicted
       N       E                     dE             d eps       ncg     rms          rms(c)
DAV:   1    -0.165711568816E+02   -0.45249E-02   -0.61722E-01   704   0.479E+00    0.612E-01
DAV:   2    -0.165651308367E+02    0.60260E-02   -0.25858E-02   860   0.123E+00    0.271E-01
DAV:   3    -0.165641734502E+02    0.95739E-03   -0.22752E-03   848   0.499E-01    0.183E-01
DAV:   4    -0.165640536401E+02    0.11981E-03   -0.18682E-03   806   0.597E-01    0.154E-01
DAV:   5    -0.165637987362E+02    0.25490E-03   -0.69109E-04   794   0.308E-01    0.550E-02
DAV:   6    -0.165638157884E+02   -0.17052E-04   -0.11915E-04   666   0.684E-02
   2 F= -.17796678E+02 E0= -.17796678E+02  d E =-.165883E-02
stress tensor set to zero in row and column 1
stress tensor set to zero in row and column 3
 BRION: g(F)=  0.914E-03 g(S)=  0.676E-03 retain N=  1 mean eig= 0.64
 eig:   0.638
 bond charge predicted
       N       E                     dE             d eps       ncg     rms          rms(c)
DAV:   1    -0.165669184839E+02   -0.31197E-02   -0.94606E-02   704   0.186E+00    0.221E-01
DAV:   2    -0.165661284398E+02    0.79004E-03   -0.43717E-03   878   0.490E-01    0.935E-02
DAV:   3    -0.165660031968E+02    0.12524E-03   -0.26688E-04   854   0.163E-01    0.626E-02
DAV:   4    -0.165659928641E+02    0.10333E-04   -0.23013E-04   734   0.207E-01
   3 F= -.17797414E+02 E0= -.17797414E+02  d E =-.736301E-03
stress tensor set to zero in row and column 1
stress tensor set to zero in row and column 3
 BRION: g(F)=  0.507E-03 g(S)=  0.150E-03 retain N=  1 mean eig= 1.24
 eig:   1.245
 bond charge predicted
       N       E                     dE             d eps       ncg     rms          rms(c)
DAV:   1    -0.165676896642E+02   -0.16865E-02   -0.11254E-01   776   0.193E+00    0.197E-01
DAV:   2    -0.165673994677E+02    0.29020E-03   -0.49425E-03   830   0.466E-01    0.779E-02
DAV:   3    -0.165673171929E+02    0.82275E-04   -0.16343E-04   790   0.113E-01    0.512E-02
DAV:   4    -0.165673198954E+02   -0.27025E-05   -0.13436E-04   650   0.151E-01
   4 F= -.17797794E+02 E0= -.17797794E+02  d E =-.380496E-03
stress tensor set to zero in row and column 1
stress tensor set to zero in row and column 3
 BRION: g(F)=  0.359E-03 g(S)=  0.194E-04 retain N=  1 mean eig= 0.85
 eig:   0.854
 reached required accuracy - stopping structural energy minimisation
 writing wavefunctions
