 vasp.5.4.4.16052018 (build Dec 07 2020 11:33:42) complex                       
  
 executed on             LinuxIFC date 2020.12.13  00:46:28
 running on    8 total cores
 distrk:  each k-point on    2 cores,    4 groups
 distr:  one band on NCORES_PER_BAND=   1 cores,    2 groups


--------------------------------------------------------------------------------------------------------


 INCAR:
 POTCAR:    PAW_PBE Cl 06Sep2000                  
 POTCAR:    PAW_PBE Br 06Sep2000                  
 POTCAR:    PAW_PBE Pt 04Feb2005                  

 ----------------------------------------------------------------------------- 
|                                                                             |
|           W    W    AA    RRRRR   N    N  II  N    N   GGGG   !!!           |
|           W    W   A  A   R    R  NN   N  II  NN   N  G    G  !!!           |
|           W    W  A    A  R    R  N N  N  II  N N  N  G       !!!           |
|           W WW W  AAAAAA  RRRRR   N  N N  II  N  N N  G  GGG   !            |
|           WW  WW  A    A  R   R   N   NN  II  N   NN  G    G                |
|           W    W  A    A  R    R  N    N  II  N    N   GGGG   !!!           |
|                                                                             |
|      For optimal performance we recommend to set                            |
|        NCORE= 4 - approx SQRT( number of cores)                             |
|      NCORE specifies how many cores store one orbital (NPAR=cpu/NCORE).     |
|      This setting can  greatly improve the performance of VASP for DFT.     |
|      The default,   NCORE=1            might be grossly inefficient         |
|      on modern multi-core architectures or massively parallel machines.     |
|      Do your own testing !!!!                                               |
|      Unfortunately you need to use the default for GW and RPA calculations. |
|      (for HF NCORE is supported but not extensively tested yet)             |
|                                                                             |
 ----------------------------------------------------------------------------- 


 ----------------------------------------------------------------------------- 
|                                                                             |
|           W    W    AA    RRRRR   N    N  II  N    N   GGGG   !!!           |
|           W    W   A  A   R    R  NN   N  II  NN   N  G    G  !!!           |
|           W    W  A    A  R    R  N N  N  II  N N  N  G       !!!           |
|           W WW W  AAAAAA  RRRRR   N  N N  II  N  N N  G  GGG   !            |
|           WW  WW  A    A  R   R   N   NN  II  N   NN  G    G                |
|           W    W  A    A  R    R  N    N  II  N    N   GGGG   !!!           |
|                                                                             |
|      You have enabled k-point parallelism (KPAR>1).                         |
|      This developmental code was originally  written by Paul Kent at ORNL,  |
|      and carefully double checked in Vienna.                                |
|      GW as well as linear response parallelism added by Martijn Marsman     |
|      and Georg Kresse.                                                      |
|      Carefully verify results versus KPAR=1.                                |
|      Report problems to Paul Kent and Vienna.                               |
|                                                                             |
 ----------------------------------------------------------------------------- 

 POTCAR:    PAW_PBE Cl 06Sep2000                  
   VRHFIN =Cl: s2p5                                                             
   LEXCH  = PE                                                                  
   EATOM  =   409.7259 eV,   30.1140 Ry                                         
                                                                                
   TITEL  = PAW_PBE Cl 06Sep2000                                                
   LULTRA =        F    use ultrasoft PP ?                                      
   IUNSCR =        1    unscreen: 0-lin 1-nonlin 2-no                           
   RPACOR =    1.500    partial core radius                                     
   POMASS =   35.453; ZVAL   =    7.000    mass and valenz                      
   RCORE  =    1.900    outmost cutoff radius                                   
   RWIGS  =    2.100; RWIGS  =    1.111    wigner-seitz radius (au A)           
   ENMAX  =  262.472; ENMIN  =  196.854 eV                                      
   ICORE  =        2    local potential                                         
   LCOR   =        T    correct aug charges                                     
   LPAW   =        T    paw PP                                                  
   EAUG   =  356.192                                                            
   DEXC   =    0.000                                                            
   RMAX   =    1.945    core radius for proj-oper                               
   RAUG   =    1.300    factor for augmentation sphere                          
   RDEP   =    2.020    radius for radial grids                                 
   RDEPT  =    1.678    core radius for aug-charge                              
                                                                                
   Atomic configuration                                                         
    6 entries                                                                   
     n  l   j            E        occ.                                          
     1  0  0.50     -2751.1850   2.0000                                         
     2  0  0.50      -252.6861   2.0000                                         
     2  1  1.50      -191.6157   6.0000                                         
     3  0  0.50       -20.6916   2.0000                                         
     3  1  0.50        -8.5949   5.0000                                         
     3  2  1.50        -8.1635   0.0000                                         
   Description                                                                  
     l       E           TYP  RCUT    TYP  RCUT                                 
     0    -20.6915656     23  1.900                                             
     0    -22.0521482     23  1.900                                             
     1     -8.5948577     23  1.900                                             
     1     -5.3847331     23  1.900                                             
     2     -8.1634956     23  1.900                                             
  local pseudopotential read in
  partial core-charges read in
  partial kinetic energy density read in
  atomic valenz-charges read in
  non local Contribution for L=           0  read in
    real space projection operators read in
  non local Contribution for L=           0  read in
    real space projection operators read in
  non local Contribution for L=           1  read in
    real space projection operators read in
  non local Contribution for L=           1  read in
    real space projection operators read in
    PAW grid and wavefunctions read in
 
   number of l-projection  operators is LMAX  =           4
   number of lm-projection operators is LMMAX =           8
 
 POTCAR:    PAW_PBE Br 06Sep2000                  
   VRHFIN =Br: s2p5                                                             
   LEXCH  = PE                                                                  
   EATOM  =   368.4488 eV,   27.0802 Ry                                         
                                                                                
   TITEL  = PAW_PBE Br 06Sep2000                                                
   LULTRA =        F    use ultrasoft PP ?                                      
   IUNSCR =        1    unscreen: 0-lin 1-nonlin 2-no                           
   RPACOR =    1.900    partial core radius                                     
   POMASS =   79.904; ZVAL   =    7.000    mass and valenz                      
   RCORE  =    2.100    outmost cutoff radius                                   
   RWIGS  =    2.200; RWIGS  =    1.164    wigner-seitz radius (au A)           
   ENMAX  =  216.285; ENMIN  =  162.214 eV                                      
   ICORE  =        3    local potential                                         
   LCOR   =        T    correct aug charges                                     
   LPAW   =        T    paw PP                                                  
   EAUG   =  503.852                                                            
   DEXC   =    0.000                                                            
   RMAX   =    2.139    core radius for proj-oper                               
   RAUG   =    1.300    factor for augmentation sphere                          
   RDEP   =    2.186    radius for radial grids                                 
   RDEPT  =    1.890    core radius for aug-charge                              
                                                                                
   Atomic configuration                                                         
   10 entries                                                                   
     n  l   j            E        occ.                                          
     1  0  0.50    -13316.2796   2.0000                                         
     2  0  0.50     -1732.8239   2.0000                                         
     2  1  1.50     -1528.2193   6.0000                                         
     3  0  0.50      -238.0460   2.0000                                         
     3  1  1.50      -173.4609   6.0000                                         
     3  2  2.50       -66.7132  10.0000                                         
     4  0  0.50       -20.1334   2.0000                                         
     4  1  0.50        -7.8591   5.0000                                         
     4  2  2.50        -8.1635   0.0000                                         
     4  3  2.50        -8.1635   0.0000                                         
   Description                                                                  
     l       E           TYP  RCUT    TYP  RCUT                                 
     0    -20.1333652     23  2.100                                             
     0    -21.4939478     23  2.100                                             
     1     -7.8591052     23  2.100                                             
     1     -3.1608434     23  2.100                                             
     2     -8.1634956     23  2.100                                             
     3     -1.3605826      7  2.100                                             
  local pseudopotential read in
  partial core-charges read in
  partial kinetic energy density read in
  atomic valenz-charges read in
  non local Contribution for L=           0  read in
    real space projection operators read in
  non local Contribution for L=           0  read in
    real space projection operators read in
  non local Contribution for L=           1  read in
    real space projection operators read in
  non local Contribution for L=           1  read in
    real space projection operators read in
  non local Contribution for L=           2  read in
    real space projection operators read in
    PAW grid and wavefunctions read in
 
   number of l-projection  operators is LMAX  =           5
   number of lm-projection operators is LMMAX =          13
 
 POTCAR:    PAW_PBE Pt 04Feb2005                  
   VRHFIN =Pt: s1d9                                                             
   LEXCH  = PE                                                                  
   EATOM  =   729.1176 eV,   53.5886 Ry                                         
                                                                                
   TITEL  = PAW_PBE Pt 04Feb2005                                                
   LULTRA =        F    use ultrasoft PP ?                                      
   IUNSCR =        1    unscreen: 0-lin 1-nonlin 2-no                           
   RPACOR =    2.330    partial core radius                                     
   POMASS =  195.080; ZVAL   =   10.000    mass and valenz                      
   RCORE  =    2.600    outmost cutoff radius                                   
   RWIGS  =    2.750; RWIGS  =    1.455    wigner-seitz radius (au A)           
   ENMAX  =  230.283; ENMIN  =  172.712 eV                                      
   ICORE  =        3    local potential                                         
   LCOR   =        T    correct aug charges                                     
   LPAW   =        T    paw PP                                                  
   EAUG   =  358.966                                                            
   DEXC   =    0.000                                                            
   RMAX   =    2.658    core radius for proj-oper                               
   RAUG   =    1.300    factor for augmentation sphere                          
   RDEP   =    2.761    radius for radial grids                                 
   RDEPT  =    2.203    core radius for aug-charge                              
                                                                                
   Atomic configuration                                                         
   16 entries                                                                   
     n  l   j            E        occ.                                          
     1  0  0.50    -78401.1885   2.0000                                         
     2  0  0.50    -13770.7750   2.0000                                         
     2  1  1.50    -11931.0468   6.0000                                         
     3  0  0.50     -3234.7234   2.0000                                         
     3  1  1.50     -2699.2216   6.0000                                         
     3  2  2.50     -2119.5714  10.0000                                         
     4  0  0.50      -695.1528   2.0000                                         
     4  1  1.50      -519.6034   6.0000                                         
     4  2  2.50      -306.6786  10.0000                                         
     4  3  3.50       -70.1041  14.0000                                         
     5  0  0.50      -101.7747   2.0000                                         
     5  1  1.50       -55.9873   6.0000                                         
     5  2  2.50        -6.1423   9.0000                                         
     6  0  0.50        -5.6573   1.0000                                         
     6  1  1.50        -6.8029   0.0000                                         
     5  3  2.50        -1.3606   0.0000                                         
   Description                                                                  
     l       E           TYP  RCUT    TYP  RCUT                                 
     2     -6.1423404     23  2.500                                             
     2     -7.5029230     23  2.500                                             
     0     -5.6573207     23  2.500                                             
     0      0.7416693     23  2.500                                             
     1     -2.7211652     23  2.600                                             
     1     20.4087390     23  2.600                                             
     3     -1.3605826     23  2.500                                             
  local pseudopotential read in
  partial core-charges read in
  partial kinetic energy density read in
  atomic valenz-charges read in
  non local Contribution for L=           2  read in
    real space projection operators read in
  non local Contribution for L=           2  read in
    real space projection operators read in
  non local Contribution for L=           0  read in
    real space projection operators read in
  non local Contribution for L=           0  read in
    real space projection operators read in
  non local Contribution for L=           1  read in
    real space projection operators read in
  non local Contribution for L=           1  read in
    real space projection operators read in
    PAW grid and wavefunctions read in
 
   number of l-projection  operators is LMAX  =           6
   number of lm-projection operators is LMMAX =          18
 
  PAW_PBE Cl 06Sep2000                  :
 energy of atom  1       EATOM= -409.7259
 kinetic energy error for atom=    0.0150 (will be added to EATOM!!)
  PAW_PBE Br 06Sep2000                  :
 energy of atom  2       EATOM= -368.4488
 kinetic energy error for atom=    0.0072 (will be added to EATOM!!)
  PAW_PBE Pt 04Feb2005                  :
 energy of atom  3       EATOM= -729.1176
 kinetic energy error for atom=    0.0416 (will be added to EATOM!!)
 
 
 POSCAR: ClBrPt2                                 
  positions in direct lattice
  velocities in cartesian coordinates
 exchange correlation table for  LEXCH =        8
   RHO(1)=    0.500       N(1)  =     2000
   RHO(2)=  100.500       N(2)  =     4000
 


--------------------------------------------------------------------------------------------------------


 ion  position               nearest neighbor table
   1  0.000  0.500  0.168-   4 2.49   4 2.50   4 2.51
   2  0.000  0.500  0.386-   3 2.58   3 2.59   3 2.60
   3  0.333  0.167  0.310-   4 2.58   2 2.58   4 2.59   2 2.59   4 2.60   2 2.60
   4  0.667  0.833  0.236-   1 2.49   1 2.50   1 2.51   3 2.58   3 2.59   3 2.60
 

IMPORTANT INFORMATION: All symmetrisations will be switched off!
NOSYMM: (Re-)initialisation of all symmetry stuff for point group C_1.

 
 
 KPOINTS: Automatic mesh                          

Automatic generation of k-mesh.
Space group operators:
 irot       det(A)        alpha          n_x          n_y          n_z        tau_x        tau_y        tau_z
    1     1.000000     0.000000     1.000000     0.000000     0.000000     0.000000     0.000000     0.000000
 
 Subroutine IBZKPT returns following result:
 ===========================================
 
 Found     16 irreducible k-points:
 
 Following reciprocal coordinates:
            Coordinates               Weight
  0.000000  0.000000  0.000000      1.000000
  0.250000  0.000000  0.000000      1.000000
  0.500000  0.000000  0.000000      1.000000
 -0.250000 -0.000000  0.000000      1.000000
 -0.000000  0.250000  0.000000      1.000000
  0.250000  0.250000  0.000000      1.000000
  0.500000  0.250000  0.000000      1.000000
 -0.250000  0.250000  0.000000      1.000000
 -0.000000  0.500000  0.000000      1.000000
  0.250000  0.500000  0.000000      1.000000
  0.500000  0.500000  0.000000      1.000000
 -0.250000  0.500000  0.000000      1.000000
  0.000000 -0.250000  0.000000      1.000000
  0.250000 -0.250000  0.000000      1.000000
  0.500000 -0.250000  0.000000      1.000000
 -0.250000 -0.250000  0.000000      1.000000
 
 Following cartesian coordinates:
            Coordinates               Weight
  0.000000  0.000000  0.000000      1.000000
  0.068441  0.038606  0.000000      1.000000
  0.136883  0.077211  0.000000      1.000000
 -0.068441 -0.038606  0.000000      1.000000
  0.000787  0.079361  0.000000      1.000000
  0.069229  0.117966  0.000000      1.000000
  0.137670  0.156572  0.000000      1.000000
 -0.067654  0.040755  0.000000      1.000000
  0.001575  0.158721  0.000000      1.000000
  0.070016  0.197327  0.000000      1.000000
  0.138458  0.235932  0.000000      1.000000
 -0.066867  0.120116  0.000000      1.000000
 -0.000787 -0.079361  0.000000      1.000000
  0.067654 -0.040755  0.000000      1.000000
  0.136096 -0.002149  0.000000      1.000000
 -0.069229 -0.117966  0.000000      1.000000
 


--------------------------------------------------------------------------------------------------------




 Dimension of arrays:
   k-points           NKPTS =     16   k-points in BZ     NKDIM =     16   number of bands    NBANDS=     22
   number of dos      NEDOS =    301   number of ions     NIONS =      4
   non local maximal  LDIM  =      6   non local SUM 2l+1 LMDIM =     18
   total plane-waves  NPLWV =  69120
   max r-space proj   IRMAX =      1   max aug-charges    IRDMAX=  18287
   dimension x,y,z NGX =    24 NGY =   24 NGZ =  120
   dimension x,y,z NGXF=    48 NGYF=   48 NGZF=  240
   support grid    NGXF=    48 NGYF=   48 NGZF=  240
   ions per type =               1   1   2
   NGX,Y,Z   is equivalent  to a cutoff of  10.86, 10.97,  9.97 a.u.
   NGXF,Y,Z  is equivalent  to a cutoff of  21.72, 21.94, 19.95 a.u.

 SYSTEM =  unknown system                          
 POSCAR =  ClBrPt2                                 

 Startparameter for this run:
   NWRITE =      2    write-flag & timer
   PREC   = accura    normal or accurate (medium, high low for compatibility)
   ISTART =      0    job   : 0-new  1-cont  2-samecut
   ICHARG =      2    charge: 1-file 2-atom 10-const
   ISPIN  =      1    spin polarized calculation?
   LNONCOLLINEAR =      F non collinear calculations
   LSORBIT =      F    spin-orbit coupling
   INIWAV =      1    electr: 0-lowe 1-rand  2-diag
   LASPH  =      F    aspherical Exc in radial PAW
   METAGGA=      F    non-selfconsistent MetaGGA calc.

 Electronic Relaxation 1
   ENCUT  =  300.0 eV  22.05 Ry    4.70 a.u.   5.19  5.14 28.25*2*pi/ulx,y,z
   ENINI  =  300.0     initial cutoff
   ENAUG  =  503.9 eV  augmentation charge cutoff
   NELM   =     60;   NELMIN=  2; NELMDL= -5     # of ELM steps 
   EDIFF  = 0.5E-04   stopping-criterion for ELM
   LREAL  =      F    real-space projection
   NLSPLINE    = F    spline interpolate recip. space projectors
   LCOMPAT=      F    compatible to vasp.4.4
   GGA_COMPAT  = T    GGA compatible to vasp.4.4-vasp.4.6
   LMAXPAW     = -100 max onsite density
   LMAXMIX     =    2 max onsite mixed and CHGCAR
   VOSKOWN=      0    Vosko Wilk Nusair interpolation
   ROPT   =    0.00000   0.00000   0.00000
 Ionic relaxation
   EDIFFG = 0.5E-03   stopping-criterion for IOM
   NSW    =    100    number of steps for IOM
   NBLOCK =      1;   KBLOCK =    100    inner block; outer block 
   IBRION =      1    ionic relax: 0-MD 1-quasi-New 2-CG
   NFREE  =      0    steps in history (QN), initial steepest desc. (CG)
   ISIF   =      3    stress and relaxation
   IWAVPR =     11    prediction:  0-non 1-charg 2-wave 3-comb
   ISYM   =     -1    0-nonsym 1-usesym 2-fastsym
   LCORR  =      T    Harris-Foulkes like correction to forces

   POTIM  = 0.5000    time-step for ionic-motion
   TEIN   =    0.0    initial temperature
   TEBEG  =    0.0;   TEEND  =   0.0 temperature during run
   SMASS  =  -3.00    Nose mass-parameter (am)
   estimated Nose-frequenzy (Omega)   =  0.10E-29 period in steps =****** mass=  -0.308E-27a.u.
   SCALEE = 1.0000    scale energy and forces
   NPACO  =    256;   APACO  = 16.0  distance and # of slots for P.C.
   PSTRESS=    0.0 pullay stress

  Mass of Ions in am
   POMASS =  35.45 79.90195.08
  Ionic Valenz
   ZVAL   =   7.00  7.00 10.00
  Atomic Wigner-Seitz radii
   RWIGS  =  -1.00 -1.00 -1.00
  virtual crystal weights 
   VCA    =   1.00  1.00  1.00
   NELECT =      34.0000    total number of electrons
   NUPDOWN=      -1.0000    fix difference up-down

 DOS related values:
   EMIN   =  10.00;   EMAX   =-10.00  energy-range for DOS
   EFERMI =   0.00
   ISMEAR =     0;   SIGMA  =   0.10  broadening in eV -4-tet -1-fermi 0-gaus

 Electronic relaxation 2 (details)
   IALGO  =     38    algorithm
   LDIAG  =      T    sub-space diagonalisation (order eigenvalues)
   LSUBROT=      F    optimize rotation matrix (better conditioning)
   TURBO    =      0    0=normal 1=particle mesh
   IRESTART =      0    0=no restart 2=restart with 2 vectors
   NREBOOT  =      0    no. of reboots
   NMIN     =      0    reboot dimension
   EREF     =   0.00    reference energy to select bands
   IMIX   =      4    mixing-type and parameters
     AMIX     =   0.40;   BMIX     =  1.00
     AMIX_MAG =   1.60;   BMIX_MAG =  1.00
     AMIN     =   0.10
     WC   =   100.;   INIMIX=   1;  MIXPRE=   1;  MAXMIX= -45

 Intra band minimization:
   WEIMIN = 0.0010     energy-eigenvalue tresh-hold
   EBREAK =  0.57E-06  absolut break condition
   DEPER  =   0.30     relativ break condition  

   TIME   =   0.40     timestep for ELM

  volume/ion in A,a.u.               =      57.86       390.44
  Fermi-wavevector in a.u.,A,eV,Ry     =   0.863827  1.632396 10.152629  0.746197
  Thomas-Fermi vector in A             =   1.981834
 
 Write flags
   LWAVE        =      T    write WAVECAR
   LDOWNSAMPLE  =      F    k-point downsampling of WAVECAR
   LCHARG       =      T    write CHGCAR
   LVTOT        =      F    write LOCPOT, total local potential
   LVHAR        =      F    write LOCPOT, Hartree potential only
   LELF         =      F    write electronic localiz. function (ELF)
   LORBIT       =      0    0 simple, 1 ext, 2 COOP (PROOUT), +10 PAW based schemes


 Dipole corrections
   LMONO  =      F    monopole corrections only (constant potential shift)
   LDIPOL =      T    correct potential (dipole corrections)
   IDIPOL =      3    1-x, 2-y, 3-z, 4-all directions 
   EPSILON=  1.0000000 bulk dielectric constant

 Exchange correlation treatment:
   GGA     =    --    GGA type
   LEXCH   =     8    internal setting for exchange type
   VOSKOWN=      0    Vosko Wilk Nusair interpolation
   LHFCALC =     F    Hartree Fock is set to
   LHFONE  =     F    Hartree Fock one center treatment
   AEXX    =    0.0000 exact exchange contribution

 Linear response parameters
   LEPSILON=     F    determine dielectric tensor
   LRPA    =     F    only Hartree local field effects (RPA)
   LNABLA  =     F    use nabla operator in PAW spheres
   LVEL    =     F    velocity operator in full k-point grid
   LINTERFAST=   F  fast interpolation
   KINTER  =     0    interpolate to denser k-point grid
   CSHIFT  =0.1000    complex shift for real part using Kramers Kronig
   OMEGAMAX=  -1.0    maximum frequency
   DEG_THRESHOLD= 0.2000000E-02 threshold for treating states as degnerate
   RTIME   =   -0.100 relaxation time in fs
  (WPLASMAI=    0.000 imaginary part of plasma frequency in eV, 0.658/RTIME)
   DFIELD  = 0.0000000 0.0000000 0.0000000 field for delta impulse in time
 
 Orbital magnetization related:
   ORBITALMAG=     F  switch on orbital magnetization
   LCHIMAG   =     F  perturbation theory with respect to B field
   DQ        =  0.001000  dq finite difference perturbation B field
   LLRAUG    =     F  two centre corrections for induced B field



--------------------------------------------------------------------------------------------------------


 quasi-Newton-method for relaxation of ions
 charge density and potential will be updated during run
 non-spin polarized calculation
 Variant of blocked Davidson
 Davidson routine will perform the subspace rotation
 perform sub-space diagonalisation
    after iterative eigenvector-optimisation
 modified Broyden-mixing scheme, WC =      100.0
 initial mixing is a Kerker type mixing with AMIX =  0.4000 and BMIX =      1.0000
 Hartree-type preconditioning will be used
 using additional bands            5
 reciprocal scheme for non local part
 use partial core corrections
 calculate Harris-corrections to forces 
   (improved forces if not selfconsistent)
 use gradient corrections 
 use of overlap-Matrix (Vanderbilt PP)
 Gauss-broadening in eV      SIGMA  =   0.10


--------------------------------------------------------------------------------------------------------


  energy-cutoff  :      300.00
  volume of cell :      231.43
      direct lattice vectors                 reciprocal lattice vectors
     3.673314428 -0.036443352  0.000000000     0.273765746  0.154422299  0.000000000
    -1.786911496  3.167904907  0.000000000     0.003149382  0.317442504  0.000000000
     0.000000000  0.000000000 20.000000000     0.000000000  0.000000000  0.050000000

  length of vectors
     3.673495202  3.637124440 20.000000000     0.314315018  0.317458126  0.050000000


 
 k-points in units of 2pi/SCALE and weight: Automatic mesh                          
   0.00000000  0.00000000  0.00000000       0.062
   0.06844144  0.03860557  0.00000000       0.062
   0.13688287  0.07721115  0.00000000       0.062
  -0.06844144 -0.03860557  0.00000000       0.062
   0.00078735  0.07936063  0.00000000       0.062
   0.06922878  0.11796620  0.00000000       0.062
   0.13767022  0.15657178  0.00000000       0.062
  -0.06765409  0.04075505  0.00000000       0.062
   0.00157469  0.15872125  0.00000000       0.062
   0.07001613  0.19732683  0.00000000       0.062
   0.13845756  0.23593240  0.00000000       0.062
  -0.06686675  0.12011568  0.00000000       0.062
  -0.00078735 -0.07936063  0.00000000       0.062
   0.06765409 -0.04075505  0.00000000       0.062
   0.13609553 -0.00214948  0.00000000       0.062
  -0.06922878 -0.11796620  0.00000000       0.062
 
 k-points in reciprocal lattice and weights: Automatic mesh                          
   0.00000000  0.00000000  0.00000000       0.062
   0.25000000  0.00000000  0.00000000       0.062
   0.50000000  0.00000000  0.00000000       0.062
  -0.25000000 -0.00000000  0.00000000       0.062
  -0.00000000  0.25000000  0.00000000       0.062
   0.25000000  0.25000000  0.00000000       0.062
   0.50000000  0.25000000  0.00000000       0.062
  -0.25000000  0.25000000  0.00000000       0.062
  -0.00000000  0.50000000  0.00000000       0.062
   0.25000000  0.50000000  0.00000000       0.062
   0.50000000  0.50000000  0.00000000       0.062
  -0.25000000  0.50000000  0.00000000       0.062
   0.00000000 -0.25000000  0.00000000       0.062
   0.25000000 -0.25000000  0.00000000       0.062
   0.50000000 -0.25000000  0.00000000       0.062
  -0.25000000 -0.25000000  0.00000000       0.062
 
 position of ions in fractional coordinates (direct lattice) 
   0.00003284  0.49996180  0.16834626
   0.00003221  0.49995994  0.38572384
   0.33336542  0.16662742  0.31048675
   0.66669892  0.83329448  0.23567645
 
 position of ions in cartesian coordinates  (Angst):
  -0.89326685  1.58383024  3.36692514
  -0.89326585  1.58382437  7.71447671
   0.92680756  0.51571087  6.20973506
   0.95997129  2.61550093  4.71352901
 


--------------------------------------------------------------------------------------------------------


 k-point  1 :   0.0000 0.0000 0.0000  plane waves:    2705
 k-point  2 :   0.2500 0.0000 0.0000  plane waves:    2723
 k-point  3 :   0.5000 0.0000 0.0000  plane waves:    2722
 k-point  4 :  -0.2500-0.0000 0.0000  plane waves:    2723
 k-point  5 :  -0.0000 0.2500 0.0000  plane waves:    2735
 k-point  6 :   0.2500 0.2500 0.0000  plane waves:    2729
 k-point  7 :   0.5000 0.2500 0.0000  plane waves:    2735
 k-point  8 :  -0.2500 0.2500 0.0000  plane waves:    2721
 k-point  9 :  -0.0000 0.5000 0.0000  plane waves:    2758
 k-point 10 :   0.2500 0.5000 0.0000  plane waves:    2731
 k-point 11 :   0.5000 0.5000 0.0000  plane waves:    2738
 k-point 12 :  -0.2500 0.5000 0.0000  plane waves:    2731
 k-point 13 :   0.0000-0.2500 0.0000  plane waves:    2735
 k-point 14 :   0.2500-0.2500 0.0000  plane waves:    2721
 k-point 15 :   0.5000-0.2500 0.0000  plane waves:    2735
 k-point 16 :  -0.2500-0.2500 0.0000  plane waves:    2729

 maximum and minimum number of plane-waves per node :      2758     2705

 maximum number of plane-waves:      2758
 maximum index in each direction: 
   IXMAX=    5   IYMAX=    5   IZMAX=   28
   IXMIN=   -5   IYMIN=   -5   IZMIN=  -28


 serial   3D FFT for wavefunctions
 parallel 3D FFT for charge:
    minimum data exchange during FFTs selected (reduces bandwidth)


 total amount of memory used by VASP MPI-rank0    87430. kBytes
=======================================================================

   base      :      30000. kBytes
   nonl-proj :      19239. kBytes
   fftplans  :       9621. kBytes
   grid      :      20579. kBytes
   one-center:         62. kBytes
   wavefun   :       7929. kBytes
 
     INWAV:  cpu time    0.0000: real time    0.0000
 Broyden mixing: mesh for mixing (old mesh)
   NGX = 11   NGY = 11   NGZ = 57
  (NGX  = 48   NGY  = 48   NGZ  =240)
  gives a total of   6897 points

 initial charge density was supplied:
 charge density of overlapping atoms calculated
 number of electron      34.0000000 magnetization 
 keeping initial charge density in first step


--------------------------------------------------------------------------------------------------------


 Maximum index for augmentation-charges         8751 (set IRDMAX)


--------------------------------------------------------------------------------------------------------


 First call to EWALD:  gamma=   0.289
 Maximum number of real-space cells 5x 5x 1
 Maximum number of reciprocal cells 2x 2x 8

    FEWALD:  cpu time    0.0014: real time    0.0014


--------------------------------------- Iteration      1(   1)  ---------------------------------------


    POTLOK:  cpu time    0.2575: real time    0.2576
    SETDIJ:  cpu time    0.0068: real time    0.0068
     EDDAV:  cpu time    0.7153: real time    0.7154
       DOS:  cpu time    0.0003: real time    0.0003
    --------------------------------------------
      LOOP:  cpu time    0.9800: real time    0.9802

 eigenvalue-minimisations  :   704
 total energy-change (2. order) : 0.2232260E+03  (-0.1005180E+04)
 number of electron      34.0000000 magnetization 
 augmentation part       34.0000000 magnetization 

 DIPCOR: dipole corrections for dipol
 direction  3 min pos   183,
 dipolmoment           0.000000      0.000000     -0.000023 electrons x Angstroem
 Tr[quadrupol]       -79.923168

 energy correction for charged system         0.000000 eV
 dipol+quadrupol energy correction           -0.000000 eV
 added-field ion interaction          0.000198 eV  (added to PSCEN)


 Free energy of the ion-electron system (eV)
  ---------------------------------------------------
  alpha Z        PSCENC =        41.94087142
  Ewald energy   TEWEN  =      5878.56677358
  -Hartree energ DENC   =     -8066.94160998
  -exchange      EXHF   =         0.00000000
  -V(xc)+E(xc)   XCENC  =        37.04766492
  PAW double counting   =      2012.60260865    -1949.97488812
  entropy T*S    EENTRO =        -0.01163398
  eigenvalues    EBANDS =        33.69167407
  atomic energy  EATOM  =      2236.30457717
  Solvation  Ediel_sol  =         0.00000000
  ---------------------------------------------------
  free energy    TOTEN  =       223.22603773 eV

  energy without entropy =      223.23767171  energy(sigma->0) =      223.23185472


--------------------------------------------------------------------------------------------------------




--------------------------------------- Iteration      1(   2)  ---------------------------------------


     EDDAV:  cpu time    0.9853: real time    0.9854
       DOS:  cpu time    0.0002: real time    0.0002
    --------------------------------------------
      LOOP:  cpu time    0.9855: real time    0.9856

 eigenvalue-minimisations  :  1084
 total energy-change (2. order) :-0.2206781E+03  (-0.2118656E+03)
 number of electron      34.0000000 magnetization 
 augmentation part       34.0000000 magnetization 

 DIPCOR: dipole corrections for dipol
 direction  3 min pos   183,
 dipolmoment           0.000000      0.000000     -0.000023 electrons x Angstroem
 Tr[quadrupol]       -79.923168

 energy correction for charged system         0.000000 eV
 dipol+quadrupol energy correction           -0.000000 eV
 added-field ion interaction          0.000198 eV  (added to PSCEN)


 Free energy of the ion-electron system (eV)
  ---------------------------------------------------
  alpha Z        PSCENC =        41.94087142
  Ewald energy   TEWEN  =      5878.56677358
  -Hartree energ DENC   =     -8066.94160998
  -exchange      EXHF   =         0.00000000
  -V(xc)+E(xc)   XCENC  =        37.04766492
  PAW double counting   =      2012.60260865    -1949.97488812
  entropy T*S    EENTRO =        -0.00000000
  eigenvalues    EBANDS =      -186.99810640
  atomic energy  EATOM  =      2236.30457717
  Solvation  Ediel_sol  =         0.00000000
  ---------------------------------------------------
  free energy    TOTEN  =         2.54789124 eV

  energy without entropy =        2.54789124  energy(sigma->0) =        2.54789124


--------------------------------------------------------------------------------------------------------




--------------------------------------- Iteration      1(   3)  ---------------------------------------


     EDDAV:  cpu time    0.8080: real time    0.8081
       DOS:  cpu time    0.0002: real time    0.0002
    --------------------------------------------
      LOOP:  cpu time    0.8082: real time    0.8083

 eigenvalue-minimisations  :   842
 total energy-change (2. order) :-0.1961014E+02  (-0.1934633E+02)
 number of electron      34.0000000 magnetization 
 augmentation part       34.0000000 magnetization 

 DIPCOR: dipole corrections for dipol
 direction  3 min pos   183,
 dipolmoment           0.000000      0.000000     -0.000023 electrons x Angstroem
 Tr[quadrupol]       -79.923168

 energy correction for charged system         0.000000 eV
 dipol+quadrupol energy correction           -0.000000 eV
 added-field ion interaction          0.000198 eV  (added to PSCEN)


 Free energy of the ion-electron system (eV)
  ---------------------------------------------------
  alpha Z        PSCENC =        41.94087142
  Ewald energy   TEWEN  =      5878.56677358
  -Hartree energ DENC   =     -8066.94160998
  -exchange      EXHF   =         0.00000000
  -V(xc)+E(xc)   XCENC  =        37.04766492
  PAW double counting   =      2012.60260865    -1949.97488812
  entropy T*S    EENTRO =        -0.00000000
  eigenvalues    EBANDS =      -206.60824321
  atomic energy  EATOM  =      2236.30457717
  Solvation  Ediel_sol  =         0.00000000
  ---------------------------------------------------
  free energy    TOTEN  =       -17.06224557 eV

  energy without entropy =      -17.06224557  energy(sigma->0) =      -17.06224557


--------------------------------------------------------------------------------------------------------




--------------------------------------- Iteration      1(   4)  ---------------------------------------


     EDDAV:  cpu time    0.8136: real time    0.8136
       DOS:  cpu time    0.0002: real time    0.0002
    --------------------------------------------
      LOOP:  cpu time    0.8138: real time    0.8138

 eigenvalue-minimisations  :   862
 total energy-change (2. order) :-0.4070893E+00  (-0.4062269E+00)
 number of electron      34.0000000 magnetization 
 augmentation part       34.0000000 magnetization 

 DIPCOR: dipole corrections for dipol
 direction  3 min pos   183,
 dipolmoment           0.000000      0.000000     -0.000023 electrons x Angstroem
 Tr[quadrupol]       -79.923168

 energy correction for charged system         0.000000 eV
 dipol+quadrupol energy correction           -0.000000 eV
 added-field ion interaction          0.000198 eV  (added to PSCEN)


 Free energy of the ion-electron system (eV)
  ---------------------------------------------------
  alpha Z        PSCENC =        41.94087142
  Ewald energy   TEWEN  =      5878.56677358
  -Hartree energ DENC   =     -8066.94160998
  -exchange      EXHF   =         0.00000000
  -V(xc)+E(xc)   XCENC  =        37.04766492
  PAW double counting   =      2012.60260865    -1949.97488812
  entropy T*S    EENTRO =        -0.00000000
  eigenvalues    EBANDS =      -207.01533246
  atomic energy  EATOM  =      2236.30457717
  Solvation  Ediel_sol  =         0.00000000
  ---------------------------------------------------
  free energy    TOTEN  =       -17.46933482 eV

  energy without entropy =      -17.46933482  energy(sigma->0) =      -17.46933482


--------------------------------------------------------------------------------------------------------




--------------------------------------- Iteration      1(   5)  ---------------------------------------


     EDDAV:  cpu time    0.8367: real time    0.8367
       DOS:  cpu time    0.0002: real time    0.0002
    CHARGE:  cpu time    0.0949: real time    0.0949
    MIXING:  cpu time    0.0077: real time    0.0077
    --------------------------------------------
      LOOP:  cpu time    0.9395: real time    0.9396

 eigenvalue-minimisations  :   862
 total energy-change (2. order) :-0.9594189E-02  (-0.9592283E-02)
 number of electron      34.0000006 magnetization 
 augmentation part        3.4271334 magnetization 

 DIPCOR: dipole corrections for dipol
 direction  3 min pos   183,
 dipolmoment           0.000000      0.000000     -0.000023 electrons x Angstroem
 Tr[quadrupol]       -79.923168

 energy correction for charged system         0.000000 eV
 dipol+quadrupol energy correction           -0.000000 eV
 added-field ion interaction          0.000198 eV  (added to PSCEN)


 Broyden mixing:
  rms(total) = 0.15377E+01    rms(broyden)= 0.15375E+01
  rms(prec ) = 0.15626E+01
  weight for this iteration     100.00

 Free energy of the ion-electron system (eV)
  ---------------------------------------------------
  alpha Z        PSCENC =        41.94087142
  Ewald energy   TEWEN  =      5878.56677358
  -Hartree energ DENC   =     -8066.94160998
  -exchange      EXHF   =         0.00000000
  -V(xc)+E(xc)   XCENC  =        37.04766492
  PAW double counting   =      2012.60260865    -1949.97488812
  entropy T*S    EENTRO =        -0.00000000
  eigenvalues    EBANDS =      -207.02492665
  atomic energy  EATOM  =      2236.30457717
  Solvation  Ediel_sol  =         0.00000000
  ---------------------------------------------------
  free energy    TOTEN  =       -17.47892901 eV

  energy without entropy =      -17.47892901  energy(sigma->0) =      -17.47892901


--------------------------------------------------------------------------------------------------------




--------------------------------------- Iteration      1(   6)  ---------------------------------------


    POTLOK:  cpu time    0.2442: real time    0.2443
    SETDIJ:  cpu time    0.0065: real time    0.0065
     EDDAV:  cpu time    0.8392: real time    0.8392
       DOS:  cpu time    0.0002: real time    0.0002
    CHARGE:  cpu time    0.0874: real time    0.0875
    MIXING:  cpu time    0.0077: real time    0.0077
    --------------------------------------------
      LOOP:  cpu time    1.1853: real time    1.1855

 eigenvalue-minimisations  :   880
 total energy-change (2. order) : 0.8630135E+00  (-0.2397325E+00)
 number of electron      34.0000006 magnetization 
 augmentation part        3.8596760 magnetization 

 DIPCOR: dipole corrections for dipol
 direction  3 min pos   185,
 dipolmoment           0.000000      0.000000     -0.034803 electrons x Angstroem
 Tr[quadrupol]       -79.862262

 energy correction for charged system         0.000000 eV
 dipol+quadrupol energy correction           -0.000474 eV
 added-field ion interaction          0.148827 eV  (added to PSCEN)


 Broyden mixing:
  rms(total) = 0.86636E+00    rms(broyden)= 0.86634E+00
  rms(prec ) = 0.87119E+00
  weight for this iteration     100.00

 eigenvalues of (default mixing * dielectric matrix)
  average eigenvalue GAMMA=   1.8277
  1.8277

 Free energy of the ion-electron system (eV)
  ---------------------------------------------------
  alpha Z        PSCENC =        42.08902661
  Ewald energy   TEWEN  =      5878.56677358
  -Hartree energ DENC   =     -8051.19483219
  -exchange      EXHF   =         0.00000000
  -V(xc)+E(xc)   XCENC  =        36.74744499
  PAW double counting   =      2271.59624817    -2212.01162830
  entropy T*S    EENTRO =        -0.00000000
  eigenvalues    EBANDS =      -218.71352555
  atomic energy  EATOM  =      2236.30457717
  Solvation  Ediel_sol  =         0.00000000
  ---------------------------------------------------
  free energy    TOTEN  =       -16.61591551 eV

  energy without entropy =      -16.61591551  energy(sigma->0) =      -16.61591551


--------------------------------------------------------------------------------------------------------




--------------------------------------- Iteration      1(   7)  ---------------------------------------


    POTLOK:  cpu time    0.2475: real time    0.2475
    SETDIJ:  cpu time    0.0066: real time    0.0066
     EDDAV:  cpu time    0.7779: real time    0.7780
       DOS:  cpu time    0.0002: real time    0.0002
    CHARGE:  cpu time    0.0890: real time    0.0890
    MIXING:  cpu time    0.0080: real time    0.0080
    --------------------------------------------
      LOOP:  cpu time    1.1291: real time    1.1293

 eigenvalue-minimisations  :   806
 total energy-change (2. order) :-0.7144254E-02  (-0.5544328E-01)
 number of electron      34.0000006 magnetization 
 augmentation part        3.8209400 magnetization 

 DIPCOR: dipole corrections for dipol
 direction  3 min pos   179,
 dipolmoment           0.000000      0.000000     -0.005722 electrons x Angstroem
 Tr[quadrupol]       -80.105995

 energy correction for charged system         0.000000 eV
 dipol+quadrupol energy correction           -0.000013 eV
 added-field ion interaction          0.100517 eV  (added to PSCEN)


 Broyden mixing:
  rms(total) = 0.32020E+00    rms(broyden)= 0.32019E+00
  rms(prec ) = 0.34176E+00
  weight for this iteration     100.00

 eigenvalues of (default mixing * dielectric matrix)
  average eigenvalue GAMMA=   1.5590
  0.8246  2.2934

 Free energy of the ion-electron system (eV)
  ---------------------------------------------------
  alpha Z        PSCENC =        42.04117783
  Ewald energy   TEWEN  =      5878.56677358
  -Hartree energ DENC   =     -8056.04092115
  -exchange      EXHF   =         0.00000000
  -V(xc)+E(xc)   XCENC  =        36.65816147
  PAW double counting   =      2577.75858483    -2520.18470718
  entropy T*S    EENTRO =        -0.00000000
  eigenvalues    EBANDS =      -211.72670632
  atomic energy  EATOM  =      2236.30457717
  Solvation  Ediel_sol  =         0.00000000
  ---------------------------------------------------
  free energy    TOTEN  =       -16.62305977 eV

  energy without entropy =      -16.62305977  energy(sigma->0) =      -16.62305977


--------------------------------------------------------------------------------------------------------




--------------------------------------- Iteration      1(   8)  ---------------------------------------


    POTLOK:  cpu time    0.2430: real time    0.2431
    SETDIJ:  cpu time    0.0066: real time    0.0066
     EDDAV:  cpu time    0.8156: real time    0.8157
       DOS:  cpu time    0.0002: real time    0.0002
    CHARGE:  cpu time    0.0878: real time    0.0878
    MIXING:  cpu time    0.0079: real time    0.0079
    --------------------------------------------
      LOOP:  cpu time    1.1612: real time    1.1613

 eigenvalue-minimisations  :   842
 total energy-change (2. order) :-0.6187365E-01  (-0.4450038E-01)
 number of electron      34.0000006 magnetization 
 augmentation part        3.8283579 magnetization 

 DIPCOR: dipole corrections for dipol
 direction  3 min pos   187,
 dipolmoment           0.000000      0.000000     -0.074460 electrons x Angstroem
 Tr[quadrupol]       -80.112277

 energy correction for charged system         0.000000 eV
 dipol+quadrupol energy correction           -0.002167 eV
 added-field ion interaction         -0.011501 eV  (added to PSCEN)


 Broyden mixing:
  rms(total) = 0.26110E+00    rms(broyden)= 0.26105E+00
  rms(prec ) = 0.31756E+00
  weight for this iteration     100.00

 eigenvalues of (default mixing * dielectric matrix)
  average eigenvalue GAMMA=   1.2607
  2.4359  0.9445  0.4017

 Free energy of the ion-electron system (eV)
  ---------------------------------------------------
  alpha Z        PSCENC =        41.92700511
  Ewald energy   TEWEN  =      5878.56677358
  -Hartree energ DENC   =     -8055.32146752
  -exchange      EXHF   =         0.00000000
  -V(xc)+E(xc)   XCENC  =        36.67134631
  PAW double counting   =      2695.39045066    -2638.50726873
  entropy T*S    EENTRO =        -0.00000000
  eigenvalues    EBANDS =      -211.71634999
  atomic energy  EATOM  =      2236.30457717
  Solvation  Ediel_sol  =         0.00000000
  ---------------------------------------------------
  free energy    TOTEN  =       -16.68493342 eV

  energy without entropy =      -16.68493342  energy(sigma->0) =      -16.68493342


--------------------------------------------------------------------------------------------------------




--------------------------------------- Iteration      1(   9)  ---------------------------------------


    POTLOK:  cpu time    0.2438: real time    0.2438
    SETDIJ:  cpu time    0.0064: real time    0.0064
     EDDAV:  cpu time    0.7982: real time    0.7984
       DOS:  cpu time    0.0002: real time    0.0002
    CHARGE:  cpu time    0.0872: real time    0.0872
    MIXING:  cpu time    0.0080: real time    0.0080
    --------------------------------------------
      LOOP:  cpu time    1.1438: real time    1.1439

 eigenvalue-minimisations  :   836
 total energy-change (2. order) : 0.1173916E+00  (-0.1676793E-01)
 number of electron      34.0000006 magnetization 
 augmentation part        3.8576122 magnetization 

 DIPCOR: dipole corrections for dipol
 direction  3 min pos   194,
 dipolmoment           0.000000      0.000000     -0.034606 electrons x Angstroem
 Tr[quadrupol]       -80.058312

 energy correction for charged system         0.000000 eV
 dipol+quadrupol energy correction           -0.000468 eV
 added-field ion interaction         -0.541990 eV  (added to PSCEN)


 Broyden mixing:
  rms(total) = 0.41469E-01    rms(broyden)= 0.41377E-01
  rms(prec ) = 0.43805E-01
  weight for this iteration     100.00

 eigenvalues of (default mixing * dielectric matrix)
  average eigenvalue GAMMA=   1.2859
  2.4744  1.3950  0.8832  0.3908

 Free energy of the ion-electron system (eV)
  ---------------------------------------------------
  alpha Z        PSCENC =        41.39821537
  Ewald energy   TEWEN  =      5878.56677358
  -Hartree energ DENC   =     -8054.29177556
  -exchange      EXHF   =         0.00000000
  -V(xc)+E(xc)   XCENC  =        36.67906674
  PAW double counting   =      2721.62911812    -2664.88006566
  entropy T*S    EENTRO =        -0.00000000
  eigenvalues    EBANDS =      -211.97345155
  atomic energy  EATOM  =      2236.30457717
  Solvation  Ediel_sol  =         0.00000000
  ---------------------------------------------------
  free energy    TOTEN  =       -16.56754179 eV

  energy without entropy =      -16.56754179  energy(sigma->0) =      -16.56754179


--------------------------------------------------------------------------------------------------------




--------------------------------------- Iteration      1(  10)  ---------------------------------------


    POTLOK:  cpu time    0.2411: real time    0.2411
    SETDIJ:  cpu time    0.0067: real time    0.0067
     EDDAV:  cpu time    0.7764: real time    0.7765
       DOS:  cpu time    0.0002: real time    0.0002
    CHARGE:  cpu time    0.0871: real time    0.0871
    MIXING:  cpu time    0.0081: real time    0.0081
    --------------------------------------------
      LOOP:  cpu time    1.1196: real time    1.1197

 eigenvalue-minimisations  :   800
 total energy-change (2. order) : 0.8351422E-03  (-0.2577658E-02)
 number of electron      34.0000006 magnetization 
 augmentation part        3.8564750 magnetization 

 DIPCOR: dipole corrections for dipol
 direction  3 min pos   196,
 dipolmoment           0.000000      0.000000     -0.040613 electrons x Angstroem
 Tr[quadrupol]       -80.033486

 energy correction for charged system         0.000000 eV
 dipol+quadrupol energy correction           -0.000645 eV
 added-field ion interaction         -0.816027 eV  (added to PSCEN)


 Broyden mixing:
  rms(total) = 0.14412E-01    rms(broyden)= 0.14409E-01
  rms(prec ) = 0.16502E-01
  weight for this iteration     100.00

 eigenvalues of (default mixing * dielectric matrix)
  average eigenvalue GAMMA=   1.2141
  2.4761  1.4147  0.8991  0.8991  0.3816

 Free energy of the ion-electron system (eV)
  ---------------------------------------------------
  alpha Z        PSCENC =        41.12400185
  Ewald energy   TEWEN  =      5878.56677358
  -Hartree energ DENC   =     -8054.53431706
  -exchange      EXHF   =         0.00000000
  -V(xc)+E(xc)   XCENC  =        36.71406235
  PAW double counting   =      2728.32899688    -2671.53539773
  entropy T*S    EENTRO =        -0.00000000
  eigenvalues    EBANDS =      -211.53540369
  atomic energy  EATOM  =      2236.30457717
  Solvation  Ediel_sol  =         0.00000000
  ---------------------------------------------------
  free energy    TOTEN  =       -16.56670665 eV

  energy without entropy =      -16.56670665  energy(sigma->0) =      -16.56670665


--------------------------------------------------------------------------------------------------------




--------------------------------------- Iteration      1(  11)  ---------------------------------------


    POTLOK:  cpu time    0.2432: real time    0.2433
    SETDIJ:  cpu time    0.0066: real time    0.0066
     EDDAV:  cpu time    0.7997: real time    0.7999
       DOS:  cpu time    0.0002: real time    0.0002
    CHARGE:  cpu time    0.0897: real time    0.0897
    MIXING:  cpu time    0.0082: real time    0.0082
    --------------------------------------------
      LOOP:  cpu time    1.1477: real time    1.1479

 eigenvalue-minimisations  :   818
 total energy-change (2. order) : 0.7470679E-04  (-0.2038238E-03)
 number of electron      34.0000006 magnetization 
 augmentation part        3.8534699 magnetization 

 DIPCOR: dipole corrections for dipol
 direction  3 min pos   198,
 dipolmoment           0.000000      0.000000     -0.039676 electrons x Angstroem
 Tr[quadrupol]       -80.031635

 energy correction for charged system         0.000000 eV
 dipol+quadrupol energy correction           -0.000615 eV
 added-field ion interaction         -0.972982 eV  (added to PSCEN)


 Broyden mixing:
  rms(total) = 0.81805E-02    rms(broyden)= 0.81782E-02
  rms(prec ) = 0.85026E-02
  weight for this iteration     100.00

 eigenvalues of (default mixing * dielectric matrix)
  average eigenvalue GAMMA=   1.2358
  2.4034  1.9361  0.3819  0.8626  0.8626  0.9681

 Free energy of the ion-electron system (eV)
  ---------------------------------------------------
  alpha Z        PSCENC =        40.96707646
  Ewald energy   TEWEN  =      5878.56677358
  -Hartree energ DENC   =     -8054.91986614
  -exchange      EXHF   =         0.00000000
  -V(xc)+E(xc)   XCENC  =        36.72080898
  PAW double counting   =      2727.34961370    -2670.54623236
  entropy T*S    EENTRO =        -0.00000000
  eigenvalues    EBANDS =      -211.00938333
  atomic energy  EATOM  =      2236.30457717
  Solvation  Ediel_sol  =         0.00000000
  ---------------------------------------------------
  free energy    TOTEN  =       -16.56663194 eV

  energy without entropy =      -16.56663194  energy(sigma->0) =      -16.56663194


--------------------------------------------------------------------------------------------------------




--------------------------------------- Iteration      1(  12)  ---------------------------------------


    POTLOK:  cpu time    0.2405: real time    0.2406
    SETDIJ:  cpu time    0.0123: real time    0.0123
     EDDAV:  cpu time    0.7903: real time    0.7903
       DOS:  cpu time    0.0002: real time    0.0002
    --------------------------------------------
      LOOP:  cpu time    1.0433: real time    1.0434

 eigenvalue-minimisations  :   814
 total energy-change (2. order) :-0.2850573E-04  (-0.1877546E-04)
 number of electron      34.0000006 magnetization 
 augmentation part        3.8534699 magnetization 

 DIPCOR: dipole corrections for dipol
 direction  3 min pos   199,
 dipolmoment           0.000000      0.000000     -0.039269 electrons x Angstroem
 Tr[quadrupol]       -80.030914

 energy correction for charged system         0.000000 eV
 dipol+quadrupol energy correction           -0.000603 eV
 added-field ion interaction         -1.049988 eV  (added to PSCEN)


 Free energy of the ion-electron system (eV)
  ---------------------------------------------------
  alpha Z        PSCENC =        40.89008255
  Ewald energy   TEWEN  =      5878.56677358
  -Hartree energ DENC   =     -8055.16252125
  -exchange      EXHF   =         0.00000000
  -V(xc)+E(xc)   XCENC  =        36.72563970
  PAW double counting   =      2724.91970745    -2668.10440224
  entropy T*S    EENTRO =        -0.00000000
  eigenvalues    EBANDS =      -210.70651741
  atomic energy  EATOM  =      2236.30457717
  Solvation  Ediel_sol  =         0.00000000
  ---------------------------------------------------
  free energy    TOTEN  =       -16.56666045 eV

  energy without entropy =      -16.56666045  energy(sigma->0) =      -16.56666045


--------------------------------------------------------------------------------------------------------




 average (electrostatic) potential at core
  the test charge radii are     0.9406  1.0178  1.2059
  (the norm of the test charge is              1.0000)
       1 -97.8268       2 -67.9871       3 -75.1631       4 -75.1137
 
 
 
 E-fermi :  -1.5834     XC(G=0):  -4.3245     alpha+bet : -3.9154


 k-point     1 :       0.0000    0.0000    0.0000
  band No.  band energies     occupation 
      1     -17.6311      2.00000
      2     -17.4982      2.00000
      3      -8.1089      2.00000
      4      -6.8832      2.00000
      5      -6.8781      2.00000
      6      -6.8506      2.00000
      7      -5.9102      2.00000
      8      -5.8434      2.00000
      9      -4.4962      2.00000
     10      -4.4665      2.00000
     11      -3.8354      2.00000
     12      -2.9272      2.00000
     13      -2.8863      2.00000
     14      -2.8064      2.00000
     15      -2.2358      2.00000
     16      -2.2233      2.00000
     17      -2.1243      2.00000
     18      -0.3985      0.00000
     19      -0.3452      0.00000
     20       2.0368      0.00000
     21       3.1588      0.00000
     22       3.7672      0.00000

 k-point     2 :       0.2500    0.0000    0.0000
  band No.  band energies     occupation 
      1     -17.3901      2.00000
      2     -17.2980      2.00000
      3      -7.7571      2.00000
      4      -7.0502      2.00000
      5      -6.7566      2.00000
      6      -6.6345      2.00000
      7      -6.2933      2.00000
      8      -5.5243      2.00000
      9      -5.1508      2.00000
     10      -4.7111      2.00000
     11      -4.5053      2.00000
     12      -3.1603      2.00000
     13      -2.9821      2.00000
     14      -2.9615      2.00000
     15      -2.3338      2.00000
     16      -2.3204      2.00000
     17      -2.0453      2.00000
     18      -0.2791      0.00000
     19       0.1495      0.00000
     20       3.4853      0.00000
     21       3.8894      0.00000
     22       4.4067      0.00000

 k-point     3 :       0.5000    0.0000    0.0000
  band No.  band energies     occupation 
      1     -17.1767      2.00000
      2     -17.0354      2.00000
      3      -7.8515      2.00000
      4      -7.5395      2.00000
      5      -6.5753      2.00000
      6      -6.5377      2.00000
      7      -6.1470      2.00000
      8      -5.8091      2.00000
      9      -4.7820      2.00000
     10      -4.5547      2.00000
     11      -3.5495      2.00000
     12      -3.3779      2.00000
     13      -3.2821      2.00000
     14      -3.0636      2.00000
     15      -3.0217      2.00000
     16      -3.0142      2.00000
     17      -2.5086      2.00000
     18      -0.2961      0.00000
     19       1.0635      0.00000
     20       2.2587      0.00000
     21       4.4791      0.00000
     22       4.7858      0.00000

 k-point     4 :      -0.2500   -0.0000    0.0000
  band No.  band energies     occupation 
      1     -17.3901      2.00000
      2     -17.2980      2.00000
      3      -7.7571      2.00000
      4      -7.0502      2.00000
      5      -6.7566      2.00000
      6      -6.6345      2.00000
      7      -6.2933      2.00000
      8      -5.5243      2.00000
      9      -5.1508      2.00000
     10      -4.7111      2.00000
     11      -4.5053      2.00000
     12      -3.1603      2.00000
     13      -2.9821      2.00000
     14      -2.9615      2.00000
     15      -2.3338      2.00000
     16      -2.3204      2.00000
     17      -2.0453      2.00000
     18      -0.2791      0.00000
     19       0.1495      0.00000
     20       3.4853      0.00000
     21       3.8894      0.00000
     22       4.4067      0.00000

 k-point     5 :      -0.0000    0.2500    0.0000
  band No.  band energies     occupation 
      1     -17.3821      2.00000
      2     -17.2891      2.00000
      3      -7.7375      2.00000
      4      -7.0549      2.00000
      5      -6.7550      2.00000
      6      -6.6186      2.00000
      7      -6.2911      2.00000
      8      -5.5672      2.00000
      9      -5.1652      2.00000
     10      -4.7694      2.00000
     11      -4.4604      2.00000
     12      -3.1487      2.00000
     13      -3.0030      2.00000
     14      -2.9609      2.00000
     15      -2.3278      2.00000
     16      -2.3108      2.00000
     17      -2.0306      2.00000
     18      -0.3203      0.00000
     19       0.2026      0.00000
     20       3.5191      0.00000
     21       3.9015      0.00000
     22       4.4211      0.00000

 k-point     6 :       0.2500    0.2500    0.0000
  band No.  band energies     occupation 
      1     -17.1722      2.00000
      2     -17.0270      2.00000
      3      -7.5315      2.00000
      4      -7.0751      2.00000
      5      -7.0101      2.00000
      6      -6.3214      2.00000
      7      -6.2196      2.00000
      8      -5.8931      2.00000
      9      -5.3830      2.00000
     10      -5.1540      2.00000
     11      -3.8529      2.00000
     12      -3.4794      2.00000
     13      -3.2583      2.00000
     14      -3.0431      2.00000
     15      -2.9889      2.00000
     16      -2.4034      2.00000
     17      -2.0864      2.00000
     18      -0.3726      0.00000
     19       1.1992      0.00000
     20       2.9514      0.00000
     21       4.5117      0.00000
     22       5.4679      0.00000

 k-point     7 :       0.5000    0.2500    0.0000
  band No.  band energies     occupation 
      1     -17.1759      2.00000
      2     -17.0322      2.00000
      3      -7.5167      2.00000
      4      -7.0588      2.00000
      5      -7.0267      2.00000
      6      -6.3160      2.00000
      7      -6.2149      2.00000
      8      -5.9013      2.00000
      9      -5.3891      2.00000
     10      -5.1620      2.00000
     11      -3.8582      2.00000
     12      -3.4692      2.00000
     13      -3.2780      2.00000
     14      -3.0525      2.00000
     15      -2.9879      2.00000
     16      -2.3912      2.00000
     17      -2.0871      2.00000
     18      -0.3631      0.00000
     19       1.1696      0.00000
     20       2.9661      0.00000
     21       4.5234      0.00000
     22       5.4774      0.00000

 k-point     8 :      -0.2500    0.2500    0.0000
  band No.  band energies     occupation 
      1     -17.3859      2.00000
      2     -17.2934      2.00000
      3      -7.7468      2.00000
      4      -7.0526      2.00000
      5      -6.7563      2.00000
      6      -6.6259      2.00000
      7      -6.2922      2.00000
      8      -5.5469      2.00000
      9      -5.1592      2.00000
     10      -4.7398      2.00000
     11      -4.4817      2.00000
     12      -3.1542      2.00000
     13      -2.9978      2.00000
     14      -2.9565      2.00000
     15      -2.3328      2.00000
     16      -2.3131      2.00000
     17      -2.0378      2.00000
     18      -0.3021      0.00000
     19       0.1787      0.00000
     20       3.5027      0.00000
     21       3.8956      0.00000
     22       4.4141      0.00000

 k-point     9 :      -0.0000    0.5000    0.0000
  band No.  band energies     occupation 
      1     -17.1621      2.00000
      2     -17.0142      2.00000
      3      -7.8323      2.00000
      4      -7.5412      2.00000
      5      -6.5772      2.00000
      6      -6.5571      2.00000
      7      -6.1368      2.00000
      8      -5.8711      2.00000
      9      -4.7511      2.00000
     10      -4.5576      2.00000
     11      -3.5901      2.00000
     12      -3.3580      2.00000
     13      -3.3235      2.00000
     14      -3.0684      2.00000
     15      -2.9851      2.00000
     16      -2.9506      2.00000
     17      -2.5066      2.00000
     18      -0.3380      0.00000
     19       1.1841      0.00000
     20       2.2089      0.00000
     21       4.4754      0.00000
     22       4.7239      0.00000

 k-point    10 :       0.2500    0.5000    0.0000
  band No.  band energies     occupation 
      1     -17.1681      2.00000
      2     -17.0213      2.00000
      3      -7.5468      2.00000
      4      -7.0931      2.00000
      5      -6.9927      2.00000
      6      -6.3274      2.00000
      7      -6.2254      2.00000
      8      -5.8833      2.00000
      9      -5.3748      2.00000
     10      -5.1479      2.00000
     11      -3.8480      2.00000
     12      -3.4892      2.00000
     13      -3.2301      2.00000
     14      -3.0456      2.00000
     15      -2.9834      2.00000
     16      -2.4161      2.00000
     17      -2.0861      2.00000
     18      -0.3814      0.00000
     19       1.2305      0.00000
     20       2.9356      0.00000
     21       4.4995      0.00000
     22       5.4589      0.00000

 k-point    11 :       0.5000    0.5000    0.0000
  band No.  band energies     occupation 
      1     -17.1690      2.00000
      2     -17.0244      2.00000
      3      -7.8421      2.00000
      4      -7.5404      2.00000
      5      -6.5769      2.00000
      6      -6.5477      2.00000
      7      -6.1410      2.00000
      8      -5.8411      2.00000
      9      -4.7660      2.00000
     10      -4.5564      2.00000
     11      -3.5723      2.00000
     12      -3.3669      2.00000
     13      -3.3062      2.00000
     14      -3.0578      2.00000
     15      -3.0027      2.00000
     16      -2.9858      2.00000
     17      -2.5072      2.00000
     18      -0.3181      0.00000
     19       1.1251      0.00000
     20       2.2345      0.00000
     21       4.4806      0.00000
     22       4.7509      0.00000

 k-point    12 :      -0.2500    0.5000    0.0000
  band No.  band energies     occupation 
      1     -17.1681      2.00000
      2     -17.0213      2.00000
      3      -7.5468      2.00000
      4      -7.0931      2.00000
      5      -6.9927      2.00000
      6      -6.3274      2.00000
      7      -6.2254      2.00000
      8      -5.8833      2.00000
      9      -5.3748      2.00000
     10      -5.1479      2.00000
     11      -3.8480      2.00000
     12      -3.4892      2.00000
     13      -3.2301      2.00000
     14      -3.0456      2.00000
     15      -2.9834      2.00000
     16      -2.4161      2.00000
     17      -2.0861      2.00000
     18      -0.3814      0.00000
     19       1.2305      0.00000
     20       2.9356      0.00000
     21       4.4995      0.00000
     22       5.4589      0.00000

 k-point    13 :       0.0000   -0.2500    0.0000
  band No.  band energies     occupation 
      1     -17.3821      2.00000
      2     -17.2891      2.00000
      3      -7.7375      2.00000
      4      -7.0549      2.00000
      5      -6.7550      2.00000
      6      -6.6186      2.00000
      7      -6.2911      2.00000
      8      -5.5672      2.00000
      9      -5.1652      2.00000
     10      -4.7694      2.00000
     11      -4.4604      2.00000
     12      -3.1487      2.00000
     13      -3.0030      2.00000
     14      -2.9609      2.00000
     15      -2.3278      2.00000
     16      -2.3108      2.00000
     17      -2.0306      2.00000
     18      -0.3203      0.00000
     19       0.2026      0.00000
     20       3.5191      0.00000
     21       3.9015      0.00000
     22       4.4211      0.00000

 k-point    14 :       0.2500   -0.2500    0.0000
  band No.  band energies     occupation 
      1     -17.3859      2.00000
      2     -17.2934      2.00000
      3      -7.7468      2.00000
      4      -7.0526      2.00000
      5      -6.7563      2.00000
      6      -6.6259      2.00000
      7      -6.2922      2.00000
      8      -5.5469      2.00000
      9      -5.1592      2.00000
     10      -4.7398      2.00000
     11      -4.4817      2.00000
     12      -3.1542      2.00000
     13      -2.9978      2.00000
     14      -2.9565      2.00000
     15      -2.3328      2.00000
     16      -2.3131      2.00000
     17      -2.0378      2.00000
     18      -0.3021      0.00000
     19       0.1787      0.00000
     20       3.5027      0.00000
     21       3.8956      0.00000
     22       4.4141      0.00000

 k-point    15 :       0.5000   -0.2500    0.0000
  band No.  band energies     occupation 
      1     -17.1759      2.00000
      2     -17.0322      2.00000
      3      -7.5167      2.00000
      4      -7.0588      2.00000
      5      -7.0267      2.00000
      6      -6.3160      2.00000
      7      -6.2149      2.00000
      8      -5.9013      2.00000
      9      -5.3891      2.00000
     10      -5.1620      2.00000
     11      -3.8582      2.00000
     12      -3.4692      2.00000
     13      -3.2780      2.00000
     14      -3.0525      2.00000
     15      -2.9879      2.00000
     16      -2.3912      2.00000
     17      -2.0871      2.00000
     18      -0.3631      0.00000
     19       1.1696      0.00000
     20       2.9661      0.00000
     21       4.5234      0.00000
     22       5.4774      0.00000

 k-point    16 :      -0.2500   -0.2500    0.0000
  band No.  band energies     occupation 
      1     -17.1722      2.00000
      2     -17.0270      2.00000
      3      -7.5315      2.00000
      4      -7.0751      2.00000
      5      -7.0101      2.00000
      6      -6.3214      2.00000
      7      -6.2196      2.00000
      8      -5.8931      2.00000
      9      -5.3830      2.00000
     10      -5.1540      2.00000
     11      -3.8529      2.00000
     12      -3.4794      2.00000
     13      -3.2583      2.00000
     14      -3.0431      2.00000
     15      -2.9889      2.00000
     16      -2.4034      2.00000
     17      -2.0864      2.00000
     18      -0.3726      0.00000
     19       1.1992      0.00000
     20       2.9514      0.00000
     21       4.5117      0.00000
     22       5.4679      0.00000


--------------------------------------------------------------------------------------------------------


 soft charge-density along one line, spin component           1
         0         1         2         3         4         5         6         7         8         9
 total charge-density along one line
 
 pseudopotential strength for first ion, spin component:           1
 49.289  51.729  -0.001   0.037  -0.000  -0.001   0.046  -0.000
 51.729  54.293  -0.001   0.039  -0.000  -0.001   0.049  -0.000
 -0.001  -0.001   9.300  -0.000  -0.000  11.528  -0.000  -0.000
  0.037   0.039  -0.000   9.299  -0.000  -0.000  11.526  -0.000
 -0.000  -0.000  -0.000  -0.000   9.300  -0.000  -0.000  11.528
 -0.001  -0.001  11.528  -0.000  -0.000  14.305  -0.000  -0.000
  0.046   0.049  -0.000  11.526  -0.000  -0.000  14.303  -0.000
 -0.000  -0.000  -0.000  -0.000  11.528  -0.000  -0.000  14.305
 total augmentation occupancy for first ion, spin component:           1
  8.188  -6.160   0.043  -2.950   0.026  -0.019   1.223  -0.011
 -6.160   6.085  -0.043   2.760  -0.026   0.020  -1.209   0.012
  0.043  -0.043   3.521  -0.016  -0.002  -1.021   0.009   0.001
 -2.950   2.760  -0.016   3.308  -0.010   0.009  -0.889   0.006
  0.026  -0.026  -0.002  -0.010   3.513   0.001   0.006  -1.017
 -0.019   0.020  -1.021   0.009   0.001   0.456  -0.004  -0.001
  1.223  -1.209   0.009  -0.889   0.006  -0.004   0.407  -0.002
 -0.011   0.012   0.001   0.006  -1.017  -0.001  -0.002   0.453


------------------------ aborting loop because EDIFF is reached ----------------------------------------


    CHARGE:  cpu time    0.0858: real time    0.0858
    FORLOC:  cpu time    0.0178: real time    0.0178
    FORNL :  cpu time    0.0981: real time    0.0981
    STRESS:  cpu time    0.5413: real time    0.5414
    FORCOR:  cpu time    0.2405: real time    0.2405
    FORHAR:  cpu time    0.0476: real time    0.0476
    MIXING:  cpu time    0.0079: real time    0.0079
    OFIELD:  cpu time    0.0000: real time    0.0000

 ---------------------------------------------------------------------------------------------

         DFTD3 V3.0 Rev 1        
 IVDW         = 11
 DF pbe       
 parameters
 VDW_S6       =    1.0000
 VDW_S8       =    0.7220
 VDW_SR       =    1.2170
 rs18     =    1.0000
 alpha6   =   14.0000
 alpha8   =   16.0000
 k1-k3    =   16.0000    1.3333   -4.0000
 VDW_RADIUS   =   50.2022 A
 VDW_CNRADIUS =   21.1671 A
 Edisp (eV)   -1.22836

 E6    (eV) :    -0.3534
 E8    (eV) :    -0.8750
 % E8        : 71.23
    FORVDW:  cpu time    0.0176: real time    0.0192

  FORCE on cell =-STRESS in cart. coord.  units (eV):
  Direction    XX          YY          ZZ          XY          YZ          ZX
  --------------------------------------------------------------------------------------
  Alpha Z    41.94067    41.94067    41.94067
  Ewald    7387.79384  7392.61861 -8901.84576    -1.37437    -6.08666    -3.73228
  Hartree  7869.97503  7872.02835 -7685.44931    -0.59592    -2.18969    -1.35025
  E(xc)    -140.87405  -140.89988  -141.35645     0.00711    -0.00499    -0.00321
  Local  -15884.03912-15891.29663 15954.01664     2.08004     7.96317     4.89175
  n-local   140.94535   141.48269   142.74704    -0.14728    -0.23343    -0.14000
  augment    78.83722    78.87015    79.80910    -0.01034     0.05482     0.03323
  Kinetic   505.10877   505.62547   509.68697    -0.14642     0.23914     0.14726
  Fock        0.00000     0.00000     0.00000     0.00000     0.00000     0.00000
  vdW        -0.82095    -0.78685    -0.24001    -0.00956     0.00547     0.00341
  -------------------------------------------------------------------------------------
  Total      -1.13325    -0.41742    -0.69112    -0.19674    -0.25218    -0.15009
  in kB      -7.84538    -2.88975    -4.78455    -1.36203    -1.74583    -1.03908
  external pressure =       -5.17 kB  Pullay stress =        0.00 kB


 VOLUME and BASIS-vectors are now :
 -----------------------------------------------------------------------------
  energy-cutoff  :      300.00
  volume of cell :      231.43
      direct lattice vectors                 reciprocal lattice vectors
     3.673314428 -0.036443352  0.000000000     0.273765746  0.154422299  0.000000000
    -1.786911496  3.167904907  0.000000000     0.003149382  0.317442504  0.000000000
     0.000000000  0.000000000 20.000000000     0.000000000  0.000000000  0.050000000

  length of vectors
     3.673495202  3.637124440 20.000000000     0.314315018  0.317458126  0.050000000


 FORCES acting on ions
    electron-ion (+dipol)            ewald-force                    non-local-force                 convergence-correction
 -----------------------------------------------------------------------------------------------
   -.842E+00 -.137E+01 0.980E+03   0.882E+00 0.144E+01 -.986E+03   -.161E-01 -.252E-01 0.559E+01   -.470E-03 -.669E-03 -.913E-01
   0.694E+00 0.113E+01 -.989E+03   -.721E+00 -.117E+01 0.992E+03   -.466E-02 -.824E-02 -.275E+01   0.371E-03 0.496E-03 0.112E+00
   0.269E+00 0.439E+00 -.562E+03   -.255E+00 -.416E+00 0.555E+03   -.333E-01 -.535E-01 0.643E+01   -.177E-03 -.317E-03 0.160E+00
   -.992E-01 -.159E+00 0.567E+03   0.935E-01 0.152E+00 -.561E+03   0.314E-01 0.502E-01 -.634E+01   0.208E-03 0.128E-03 -.648E-01
 -----------------------------------------------------------------------------------------------
   0.228E-01 0.371E-01 -.306E+01   -.315E-14 0.155E-13 -.114E-12   -.227E-01 -.367E-01 0.294E+01   -.687E-04 -.362E-03 0.116E+00
 
 
 POSITION                                       TOTAL-FORCE (eV/Angst)
 -----------------------------------------------------------------------------------
     -0.89327      1.58383      3.36693         0.023167      0.039104      0.078720
     -0.89327      1.58382      7.71448        -0.030402     -0.050976     -0.095085
      0.92681      0.51571      6.20974        -0.018282     -0.030681     -0.075284
      0.95997      2.61550      4.71353         0.025517      0.042553      0.091650
 -----------------------------------------------------------------------------------
    total drift:                                0.000010     -0.000053     -0.004292


--------------------------------------------------------------------------------------------------------



  FREE ENERGIE OF THE ION-ELECTRON SYSTEM (eV)
  ---------------------------------------------------
  free  energy   TOTEN  =       -17.79501871 eV

  energy  without entropy=      -17.79501871  energy(sigma->0) =      -17.79501871
 


--------------------------------------------------------------------------------------------------------


    POTLOK:  cpu time    0.2417: real time    0.2451


--------------------------------------------------------------------------------------------------------


 Quasi-Newton relaxation of ions (Broydens 2nd method)
  g(Force)  = 0.186E-02   g(Stress)= 0.210E-02

 Reset! Starting new Quasi-Newton update for ions 


--------------------------------------------------------------------------------------------------------


    WAVPRE:  cpu time    0.8648: real time    0.8650
    FEWALD:  cpu time    0.0002: real time    0.0002
    GENKIN:  cpu time    0.0214: real time    0.0214
    ORTHCH:  cpu time    0.0183: real time    0.0183
     LOOP+:  cpu time   14.6923: real time   14.6993


--------------------------------------- Iteration      2(   1)  ---------------------------------------


    POTLOK:  cpu time    0.2397: real time    0.2399
    SETDIJ:  cpu time    0.0089: real time    0.0089
     EDDAV:  cpu time    0.7078: real time    0.7079
       DOS:  cpu time    0.0002: real time    0.0002
    CHARGE:  cpu time    0.0858: real time    0.0858
    MIXING:  cpu time    0.0108: real time    0.0108
    --------------------------------------------
      LOOP:  cpu time    1.0534: real time    1.0536

 eigenvalue-minimisations  :   704
 total energy-change (2. order) :-0.4524937E-02  (-0.6172237E-01)
 number of electron      34.0000007 magnetization 
 augmentation part        3.8207466 magnetization 

 DIPCOR: dipole corrections for dipol
 direction  3 min pos   199,
 dipolmoment           0.000000      0.000000     -0.038744 electrons x Angstroem
 Tr[quadrupol]       -79.359750

 energy correction for charged system         0.000000 eV
 dipol+quadrupol energy correction           -0.000590 eV
 added-field ion interaction         -1.041137 eV  (added to PSCEN)


 Broyden mixing:
  rms(total) = 0.61208E-01    rms(broyden)= 0.61186E-01
  rms(prec ) = 0.64925E-01
  weight for this iteration     100.00

 Free energy of the ion-electron system (eV)
  ---------------------------------------------------
  alpha Z        PSCENC =        41.11115869
  Ewald energy   TEWEN  =      5928.82943519
[...]
  band No.  band energies     occupation 
      1     -17.2013      2.00000
      2     -17.0471      2.00000
      3      -7.8822      2.00000
      4      -7.5751      2.00000
      5      -6.5960      2.00000
      6      -6.5665      2.00000
      7      -6.1627      2.00000
      8      -5.8228      2.00000
      9      -4.8080      2.00000
     10      -4.5775      2.00000
     11      -3.5754      2.00000
     12      -3.3920      2.00000
     13      -3.3023      2.00000
     14      -3.0845      2.00000
     15      -3.0465      2.00000
     16      -3.0158      2.00000
     17      -2.5124      2.00000
     18      -0.2921      0.00000
     19       1.0953      0.00000
     20       2.2679      0.00000
     21       4.5014      0.00000
     22       4.7959      0.00000

 k-point     4 :      -0.2500   -0.0000    0.0000
  band No.  band energies     occupation 
      1     -17.4148      2.00000
      2     -17.3125      2.00000
      3      -7.7896      2.00000
      4      -7.0902      2.00000
      5      -6.7857      2.00000
      6      -6.6592      2.00000
      7      -6.3181      2.00000
      8      -5.5341      2.00000
      9      -5.1777      2.00000
     10      -4.7408      2.00000
     11      -4.5282      2.00000
     12      -3.1711      2.00000
     13      -2.9965      2.00000
     14      -2.9762      2.00000
     15      -2.3405      2.00000
     16      -2.3180      2.00000
     17      -2.0391      2.00000
     18      -0.2728      0.00000
     19       0.1731      0.00000
     20       3.5047      0.00000
     21       3.9161      0.00000
     22       4.4530      0.00000

 k-point     5 :      -0.0000    0.2500    0.0000
  band No.  band energies     occupation 
      1     -17.4062      2.00000
      2     -17.3024      2.00000
      3      -7.7662      2.00000
      4      -7.0862      2.00000
      5      -6.8026      2.00000
      6      -6.6507      2.00000
      7      -6.3118      2.00000
      8      -5.5995      2.00000
      9      -5.1813      2.00000
     10      -4.8014      2.00000
     11      -4.4673      2.00000
     12      -3.1550      2.00000
     13      -3.0154      2.00000
     14      -2.9700      2.00000
     15      -2.3243      2.00000
     16      -2.3190      2.00000
     17      -2.0250      2.00000
     18      -0.2967      0.00000
     19       0.2117      0.00000
     20       3.5341      0.00000
     21       3.9327      0.00000
     22       4.4739      0.00000

 k-point     6 :       0.2500    0.2500    0.0000
  band No.  band energies     occupation 
      1     -17.1960      2.00000
      2     -17.0376      2.00000
      3      -7.5629      2.00000
      4      -7.1051      2.00000
      5      -7.0437      2.00000
      6      -6.3516      2.00000
      7      -6.2404      2.00000
      8      -5.9117      2.00000
      9      -5.4066      2.00000
     10      -5.1792      2.00000
     11      -3.8667      2.00000
     12      -3.4988      2.00000
     13      -3.2691      2.00000
     14      -3.0615      2.00000
     15      -3.0040      2.00000
     16      -2.4084      2.00000
     17      -2.0816      2.00000
     18      -0.3587      0.00000
     19       1.2168      0.00000
     20       2.9648      0.00000
     21       4.5192      0.00000
     22       5.4821      0.00000

 k-point     7 :       0.5000    0.2500    0.0000
  band No.  band energies     occupation 
      1     -17.2006      2.00000
      2     -17.0440      2.00000
      3      -7.5477      2.00000
      4      -7.0888      2.00000
      5      -7.0536      2.00000
      6      -6.3441      2.00000
      7      -6.2326      2.00000
      8      -5.9185      2.00000
      9      -5.4141      2.00000
     10      -5.1843      2.00000
     11      -3.8796      2.00000
     12      -3.4881      2.00000
     13      -3.2995      2.00000
     14      -3.0777      2.00000
     15      -3.0056      2.00000
     16      -2.3955      2.00000
     17      -2.0819      2.00000
     18      -0.3522      0.00000
     19       1.1935      0.00000
     20       2.9762      0.00000
     21       4.5400      0.00000
     22       5.5021      0.00000

 k-point     8 :      -0.2500    0.2500    0.0000
  band No.  band energies     occupation 
      1     -17.4108      2.00000
      2     -17.3077      2.00000
      3      -7.7789      2.00000
      4      -7.0886      2.00000
      5      -6.7925      2.00000
      6      -6.6550      2.00000
      7      -6.3160      2.00000
      8      -5.5631      2.00000
      9      -5.1807      2.00000
     10      -4.7678      2.00000
     11      -4.5012      2.00000
     12      -3.1643      2.00000
     13      -3.0087      2.00000
     14      -2.9692      2.00000
     15      -2.3322      2.00000
     16      -2.3186      2.00000
     17      -2.0334      2.00000
     18      -0.2853      0.00000
     19       0.1925      0.00000
     20       3.5191      0.00000
     21       3.9234      0.00000
     22       4.4625      0.00000

 k-point     9 :      -0.0000    0.5000    0.0000
  band No.  band energies     occupation 
      1     -17.1851      2.00000
      2     -17.0236      2.00000
      3      -7.8616      2.00000
      4      -7.5697      2.00000
      5      -6.6231      2.00000
      6      -6.5876      2.00000
      7      -6.1632      2.00000
      8      -5.9063      2.00000
      9      -4.7645      2.00000
     10      -4.5730      2.00000
     11      -3.6060      2.00000
     12      -3.3515      2.00000
     13      -3.3363      2.00000
     14      -3.0733      2.00000
     15      -3.0098      2.00000
     16      -2.9637      2.00000
     17      -2.5024      2.00000
     18      -0.3157      0.00000
     19       1.1846      0.00000
     20       2.2281      0.00000
     21       4.4754      0.00000
     22       4.7233      0.00000

 k-point    10 :       0.2500    0.5000    0.0000
  band No.  band energies     occupation 
      1     -17.1919      2.00000
      2     -17.0319      2.00000
      3      -7.5773      2.00000
      4      -7.1193      2.00000
      5      -7.0345      2.00000
      6      -6.3574      2.00000
      7      -6.2471      2.00000
      8      -5.9039      2.00000
      9      -5.3998      2.00000
     10      -5.1749      2.00000
     11      -3.8586      2.00000
     12      -3.5079      2.00000
     13      -3.2408      2.00000
     14      -3.0600      2.00000
     15      -2.9926      2.00000
     16      -2.4191      2.00000
     17      -2.0819      2.00000
     18      -0.3637      0.00000
     19       1.2383      0.00000
     20       2.9551      0.00000
     21       4.5014      0.00000
     22       5.4675      0.00000

 k-point    11 :       0.5000    0.5000    0.0000
  band No.  band energies     occupation 
      1     -17.1936      2.00000
      2     -17.0361      2.00000
      3      -7.8737      2.00000
      4      -7.5734      2.00000
      5      -6.6075      2.00000
      6      -6.5762      2.00000
      7      -6.1619      2.00000
      8      -5.8598      2.00000
      9      -4.7889      2.00000
     10      -4.5757      2.00000
     11      -3.5917      2.00000
     12      -3.3736      2.00000
     13      -3.3211      2.00000
     14      -3.0749      2.00000
     15      -3.0309      2.00000
     16      -2.9923      2.00000
     17      -2.5070      2.00000
     18      -0.3033      0.00000
     19       1.1371      0.00000
     20       2.2507      0.00000
     21       4.4936      0.00000
     22       4.7610      0.00000

 k-point    12 :      -0.2500    0.5000    0.0000
  band No.  band energies     occupation 
      1     -17.1919      2.00000
      2     -17.0319      2.00000
      3      -7.5773      2.00000
      4      -7.1193      2.00000
      5      -7.0345      2.00000
      6      -6.3574      2.00000
      7      -6.2471      2.00000
      8      -5.9039      2.00000
      9      -5.3998      2.00000
     10      -5.1749      2.00000
     11      -3.8586      2.00000
     12      -3.5079      2.00000
     13      -3.2408      2.00000
     14      -3.0600      2.00000
     15      -2.9926      2.00000
     16      -2.4191      2.00000
     17      -2.0819      2.00000
     18      -0.3637      0.00000
     19       1.2383      0.00000
     20       2.9551      0.00000
     21       4.5014      0.00000
     22       5.4675      0.00000

 k-point    13 :       0.0000   -0.2500    0.0000
  band No.  band energies     occupation 
      1     -17.4062      2.00000
      2     -17.3024      2.00000
      3      -7.7662      2.00000
      4      -7.0862      2.00000
      5      -6.8026      2.00000
      6      -6.6507      2.00000
      7      -6.3118      2.00000
      8      -5.5995      2.00000
      9      -5.1813      2.00000
     10      -4.8014      2.00000
     11      -4.4673      2.00000
     12      -3.1550      2.00000
     13      -3.0154      2.00000
     14      -2.9700      2.00000
     15      -2.3243      2.00000
     16      -2.3190      2.00000
     17      -2.0250      2.00000
     18      -0.2967      0.00000
     19       0.2117      0.00000
     20       3.5341      0.00000
     21       3.9327      0.00000
     22       4.4739      0.00000

 k-point    14 :       0.2500   -0.2500    0.0000
  band No.  band energies     occupation 
      1     -17.4108      2.00000
      2     -17.3077      2.00000
      3      -7.7789      2.00000
      4      -7.0886      2.00000
      5      -6.7925      2.00000
      6      -6.6550      2.00000
      7      -6.3160      2.00000
      8      -5.5631      2.00000
      9      -5.1807      2.00000
     10      -4.7678      2.00000
     11      -4.5012      2.00000
     12      -3.1643      2.00000
     13      -3.0087      2.00000
     14      -2.9692      2.00000
     15      -2.3322      2.00000
     16      -2.3186      2.00000
     17      -2.0334      2.00000
     18      -0.2853      0.00000
     19       0.1925      0.00000
     20       3.5191      0.00000
     21       3.9234      0.00000
     22       4.4625      0.00000

 k-point    15 :       0.5000   -0.2500    0.0000
  band No.  band energies     occupation 
      1     -17.2006      2.00000
      2     -17.0440      2.00000
      3      -7.5477      2.00000
      4      -7.0888      2.00000
      5      -7.0536      2.00000
      6      -6.3441      2.00000
      7      -6.2326      2.00000
      8      -5.9185      2.00000
      9      -5.4141      2.00000
     10      -5.1843      2.00000
     11      -3.8796      2.00000
     12      -3.4881      2.00000
     13      -3.2995      2.00000
     14      -3.0777      2.00000
     15      -3.0056      2.00000
     16      -2.3955      2.00000
     17      -2.0819      2.00000
     18      -0.3522      0.00000
     19       1.1935      0.00000
     20       2.9762      0.00000
     21       4.5400      0.00000
     22       5.5021      0.00000

 k-point    16 :      -0.2500   -0.2500    0.0000
  band No.  band energies     occupation 
      1     -17.1960      2.00000
      2     -17.0376      2.00000
      3      -7.5629      2.00000
      4      -7.1051      2.00000
      5      -7.0437      2.00000
      6      -6.3516      2.00000
      7      -6.2404      2.00000
      8      -5.9117      2.00000
      9      -5.4066      2.00000
     10      -5.1792      2.00000
     11      -3.8667      2.00000
     12      -3.4988      2.00000
     13      -3.2691      2.00000
     14      -3.0615      2.00000
     15      -3.0040      2.00000
     16      -2.4084      2.00000
     17      -2.0816      2.00000
     18      -0.3587      0.00000
     19       1.2168      0.00000
     20       2.9648      0.00000
     21       4.5192      0.00000
     22       5.4821      0.00000


--------------------------------------------------------------------------------------------------------


 soft charge-density along one line, spin component           1
         0         1         2         3         4         5         6         7         8         9
 total charge-density along one line
 
 pseudopotential strength for first ion, spin component:           1
 49.295  51.736  -0.001   0.037  -0.000  -0.001   0.046  -0.000
 51.736  54.300  -0.001   0.039  -0.000  -0.001   0.049  -0.000
 -0.001  -0.001   9.301  -0.000  -0.000  11.529  -0.000  -0.000
  0.037   0.039  -0.000   9.300  -0.000  -0.000  11.527  -0.000
 -0.000  -0.000  -0.000  -0.000   9.301  -0.000  -0.000  11.529
 -0.001  -0.001  11.529  -0.000  -0.000  14.306  -0.000  -0.000
  0.046   0.049  -0.000  11.527  -0.000  -0.000  14.304  -0.000
 -0.000  -0.000  -0.000  -0.000  11.529  -0.000  -0.000  14.306
 total augmentation occupancy for first ion, spin component:           1
  8.308  -6.259   0.043  -2.960   0.024  -0.015   1.229  -0.009
 -6.259   6.167  -0.043   2.771  -0.024   0.017  -1.216   0.010
  0.043  -0.043   3.510  -0.015  -0.000  -1.016   0.009   0.000
 -2.960   2.771  -0.015   3.299  -0.008   0.008  -0.885   0.005
  0.024  -0.024  -0.000  -0.008   3.512   0.000   0.005  -1.018
 -0.015   0.017  -1.016   0.008   0.000   0.457  -0.003  -0.001
  1.229  -1.216   0.009  -0.885   0.005  -0.003   0.409  -0.002
 -0.009   0.010   0.000   0.005  -1.018  -0.001  -0.002   0.456


------------------------ aborting loop because EDIFF is reached ----------------------------------------


    CHARGE:  cpu time    0.0891: real time    0.0891
    FORLOC:  cpu time    0.0178: real time    0.0178
    FORNL :  cpu time    0.0995: real time    0.0995
    STRESS:  cpu time    0.5399: real time    0.5400
    FORCOR:  cpu time    0.2436: real time    0.2436
    FORHAR:  cpu time    0.0478: real time    0.0478
    MIXING:  cpu time    0.0077: real time    0.0077
    OFIELD:  cpu time    0.0000: real time    0.0000

 ---------------------------------------------------------------------------------------------

         DFTD3 V3.0 Rev 1        
 Edisp (eV)   -1.23047

 E6    (eV) :    -0.3542
 E8    (eV) :    -0.8763
 % E8        : 71.22
    FORVDW:  cpu time    0.0166: real time    0.0166

  FORCE on cell =-STRESS in cart. coord.  units (eV):
  Direction    XX          YY          ZZ          XY          YZ          ZX
  --------------------------------------------------------------------------------------
  Alpha Z    42.01103    42.01103    42.01103
  Ewald    7423.99437  7425.16501 -8939.07307    -0.42958    -5.20381    -2.86578
  Hartree  7902.76572  7903.55151 -7718.56274    -0.25799    -1.88668    -1.04654
  E(xc)    -140.93515  -140.96446  -141.43220     0.00819    -0.00939    -0.00460
  Local  -15952.96727-15955.54861 16023.92674     0.85532     6.74094     3.73539
  n-local   141.36248   141.74273   143.16190    -0.10466    -0.11540    -0.06861
  augment    78.75076    78.86833    79.81648    -0.02660     0.03654     0.02103
  Kinetic   505.05736   505.91188   510.00620    -0.19291     0.26733     0.14712
  Fock        0.00000     0.00000     0.00000     0.00000     0.00000     0.00000
  vdW        -0.82072    -0.77753    -0.22179    -0.01032     0.00782     0.00419
  -------------------------------------------------------------------------------------
  Total      -0.78142    -0.04011    -0.36745    -0.15856    -0.16264    -0.07779
  in kB      -5.41876    -0.27815    -2.54809    -1.09952    -1.12783    -0.53947
  external pressure =       -2.75 kB  Pullay stress =        0.00 kB


 VOLUME and BASIS-vectors are now :
 -----------------------------------------------------------------------------
  energy-cutoff  :      300.00
  volume of cell :      231.04
      direct lattice vectors                 reciprocal lattice vectors
     3.673314428 -0.036382322  0.000000000     0.273765746  0.154681336  0.000000000
    -1.786911496  3.162599779  0.000000000     0.003149382  0.317975000  0.000000000
     0.000000000  0.000000000 20.000000000     0.000000000  0.000000000  0.050000000

  length of vectors
     3.673494597  3.632504654 20.000000000     0.314442363  0.317990597  0.050000000


 FORCES acting on ions
    electron-ion (+dipol)            ewald-force                    non-local-force                 convergence-correction
 -----------------------------------------------------------------------------------------------
   -.723E+00 -.126E+01 0.983E+03   0.772E+00 0.137E+01 -.988E+03   -.282E-01 -.596E-01 0.555E+01   -.443E-02 -.176E-01 0.392E-01
   0.506E+00 0.883E+00 -.992E+03   -.528E+00 -.931E+00 0.994E+03   -.135E-03 0.396E-02 -.273E+01   0.267E-02 0.114E-01 0.764E-01
   0.200E+00 0.448E+00 -.563E+03   -.169E+00 -.392E+00 0.556E+03   -.323E-01 -.690E-01 0.650E+01   -.242E-02 -.235E-02 0.412E+00
   0.606E-01 0.197E-01 0.568E+03   -.754E-01 -.442E-01 -.562E+03   0.166E-01 0.403E-01 -.641E+01   0.373E-02 0.450E-02 0.379E+00
 -----------------------------------------------------------------------------------------------
   0.442E-01 0.902E-01 -.382E+01   0.119E-13 0.719E-14 -.114E-12   -.440E-01 -.843E-01 0.291E+01   -.457E-03 -.406E-02 0.907E+00
 
 
 POSITION                                       TOTAL-FORCE (eV/Angst)
 -----------------------------------------------------------------------------------
     -0.89010      1.58820      3.37454         0.015631      0.027312      0.027468
     -0.89726      1.57261      7.70720        -0.018441     -0.031176     -0.055852
      0.92579      0.51299      6.20564        -0.002426     -0.015022      0.025143
      0.96181      2.61452      4.71728         0.005236      0.018885      0.003241
 -----------------------------------------------------------------------------------
    total drift:                               -0.000260      0.001872      0.001570


--------------------------------------------------------------------------------------------------------



  FREE ENERGIE OF THE ION-ELECTRON SYSTEM (eV)
  ---------------------------------------------------
  free  energy   TOTEN  =       -17.79779434 eV

  energy  without entropy=      -17.79779434  energy(sigma->0) =      -17.79779434
 
 d Force = 0.5253834E-03[ 0.386E-03, 0.665E-03]  d Energy = 0.3804963E-03 0.145E-03
 d Force =-0.5819201E+01[-0.582E+01,-0.582E+01]  d Ewald  = 0.5414437E+01-0.112E+02


--------------------------------------------------------------------------------------------------------


    POTLOK:  cpu time    0.2490: real time    0.2490


--------------------------------------------------------------------------------------------------------


 Quasi-Newton relaxation of ions (Broydens 2nd method)
  g(Force)  = 0.359E-03   g(Stress)= 0.194E-04

 retain information from N=  1 steps
 eigenvalues of (default step * inverse Hessian matrix)
  average eigenvalue of G=   0.8544
 eigenvalue spectrum of G is  0.8544


--------------------------------------------------------------------------------------------------------


  
 reached required accuracy - stopping structural energy minimisation
 writing wavefunctions
     LOOP+:  cpu time    5.7079: real time    5.7095
    4ORBIT:  cpu time    0.0000: real time    0.0000

 total amount of memory used by VASP MPI-rank0    87430. kBytes
=======================================================================

   base      :      30000. kBytes
   nonl-proj :      19239. kBytes
   fftplans  :       9621. kBytes
   grid      :      20579. kBytes
   one-center:         62. kBytes
   wavefun   :       7929. kBytes
 
  
  
 General timing and accounting informations for this job:
 ========================================================
  
                  Total CPU time used (sec):       36.258
                            User time (sec):       35.342
                          System time (sec):        0.916
                         Elapsed time (sec):       36.545
  
                   Maximum memory used (kb):      203516.
                   Average memory used (kb):           0.
  
                          Minor page faults:       123478
                          Major page faults:            0
                 Voluntary context switches:           53
