 running on    8 total cores
 distrk:  each k-point on    2 cores,    4 groups
 distr:  one band on    1 cores,    2 groups
 using from now: INCAR     
 vasp.5.4.4.16052018 (build Dec 07 2020 11:33:42) complex                       
  
 POSCAR found type information on POSCAR  Cl Br Pt
 POSCAR found :  3 types and       4 ions
 scaLAPACK will be used

 ----------------------------------------------------------------------------- 
|                                                                             |
|           W    W    AA    RRRRR   N    N  II  N    N   GGGG   !!!           |
|           W    W   A  A   R    R  NN   N  II  NN   N  G    G  !!!           |
|           W    W  A    A  R    R  N N  N  II  N N  N  G       !!!           |
|           W WW W  AAAAAA  RRRRR   N  N N  II  N  N N  G  GGG   !            |
|           WW  WW  A    A  R   R   N   NN  II  N   NN  G    G                |
|           W    W  A    A  R    R  N    N  II  N    N   GGGG   !!!           |
|                                                                             |
|      For optimal performance we recommend to set                            |
|        NCORE= 4 - approx SQRT( number of cores)                             |
|      NCORE specifies how many cores store one orbital (NPAR=cpu/NCORE).     |
|      This setting can  greatly improve the performance of VASP for DFT.     |
|      The default,   NCORE=1            might be grossly inefficient         |
|      on modern multi-core architectures or massively parallel machines.     |
|      Do your own testing !!!!                                               |
|      Unfortunately you need to use the default for GW and RPA calculations. |
|      (for HF NCORE is supported but not extensively tested yet)             |
|                                                                             |
 ----------------------------------------------------------------------------- 


 ----------------------------------------------------------------------------- 
|                                                                             |
|           W    W    AA    RRRRR   N    N  II  N    N   GGGG   !!!           |
|           W    W   A  A   R    R  NN   N  II  NN   N  G    G  !!!           |
|           W    W  A    A  R    R  N N  N  II  N N  N  G       !!!           |
|           W WW W  AAAAAA  RRRRR   N  N N  II  N  N N  G  GGG   !            |
|           WW  WW  A    A  R   R   N   NN  II  N   NN  G    G                |
|           W    W  A    A  R    R  N    N  II  N    N   GGGG   !!!           |
|                                                                             |
|      You have enabled k-point parallelism (KPAR>1).                         |
|      This developmental code was originally  written by Paul Kent at ORNL,  |
|      and carefully double checked in Vienna.                                |
|      GW as well as linear response parallelism added by Martijn Marsman     |
|      and Georg Kresse.                                                      |
|      Carefully verify results versus KPAR=1.                                |
|      Report problems to Paul Kent and Vienna.                               |
|                                                                             |
 ----------------------------------------------------------------------------- 

 LDA part: xc-table for Pade appr. of Perdew
 POSCAR, INCAR and KPOINTS ok, starting setup
 FFT: planning ...
 WAVECAR not read
 entering main loop
       N       E                     dE             d eps       ncg     rms          rms(c)
DAV:   1     0.244329696043E+03    0.24433E+03   -0.11533E+04  2816   0.994E+02
DAV:   2     0.517907237197E+01   -0.23915E+03   -0.22783E+03  4258   0.218E+02
DAV:   3    -0.169780455858E+02   -0.22157E+02   -0.21817E+02  3346   0.751E+01
DAV:   4    -0.174813627054E+02   -0.50332E+00   -0.50138E+00  3542   0.128E+01
DAV:   5    -0.174943174302E+02   -0.12955E-01   -0.12952E-01  3442   0.201E+00    0.150E+01
DAV:   6    -0.166141452482E+02    0.88017E+00   -0.25178E+00  3516   0.141E+01    0.841E+00
DAV:   7    -0.166101841948E+02    0.39611E-02   -0.55382E-01  3368   0.766E+00    0.318E+00
DAV:   8    -0.166692938716E+02   -0.59110E-01   -0.44053E-01  3494   0.941E+00    0.257E+00
DAV:   9    -0.165619040881E+02    0.10739E+00   -0.17116E-01  3464   0.587E+00    0.431E-01
DAV:  10    -0.165596778209E+02    0.22263E-02   -0.23487E-02  3212   0.115E+00    0.181E-01
DAV:  11    -0.165595757841E+02    0.10204E-03   -0.29412E-03  3470   0.427E-01    0.959E-02
DAV:  12    -0.165595419248E+02    0.33859E-04   -0.17454E-04  4526   0.996E-02    0.564E-02
DAV:  13    -0.165595577158E+02   -0.15791E-04   -0.16829E-04  3928   0.125E-01    0.207E-02
DAV:  14    -0.165595725974E+02   -0.14882E-04   -0.71824E-05  3380   0.685E-02    0.203E-02
DAV:  15    -0.165595859802E+02   -0.13383E-04   -0.85242E-06  3212   0.181E-02    0.113E-02
DAV:  16    -0.165596096789E+02   -0.23699E-04   -0.26931E-06  3278   0.794E-03    0.374E-03
DAV:  17    -0.165596317001E+02   -0.22021E-04   -0.19797E-06  3422   0.705E-03    0.277E-03
DAV:  18    -0.165596548475E+02   -0.23147E-04   -0.34529E-06  3194   0.837E-03    0.286E-03
DAV:  19    -0.165596579241E+02   -0.30766E-05   -0.57687E-07  3602   0.704E-03    0.194E-03
DAV:  20    -0.165596598472E+02   -0.19231E-05   -0.20841E-07  3230   0.363E-03    0.916E-04
DAV:  21    -0.165596611289E+02   -0.12817E-05   -0.68297E-08  2574   0.113E-03    0.500E-04
DAV:  22    -0.165596623562E+02   -0.12274E-05   -0.38553E-08  2322   0.812E-04    0.246E-04
DAV:  23    -0.165596628803E+02   -0.52404E-06   -0.15877E-08  2392   0.491E-04    0.365E-04
DAV:  24    -0.165596637895E+02   -0.90922E-06   -0.18273E-08  2280   0.468E-04    0.170E-04
DAV:  25    -0.165596639813E+02   -0.19179E-06   -0.54930E-09  2320   0.280E-04    0.939E-05
DAV:  26    -0.165596640859E+02   -0.10467E-06   -0.82385E-09  2212   0.546E-04    0.186E-04
DAV:  27    -0.165596640844E+02    0.15530E-08   -0.30357E-09  2326   0.474E-04
   1 F= -.17773447E+02 E0= -.17773447E+02  d E =-.177734E+02
stress tensor set to zero in row and column 1
stress tensor set to zero in row and column 2
stress tensor set to zero in row and column 3
 BRION: g(F)=  0.419E-02 g(S)=  0.000E+00
 bond charge predicted
       N       E                     dE             d eps       ncg     rms          rms(c)
DAV:   1    -0.165607433413E+02   -0.10793E-02   -0.59849E-01  2816   0.409E+00    0.326E-01
DAV:   2    -0.165620689475E+02   -0.13256E-02   -0.14599E-02  3266   0.771E-01    0.128E-01
DAV:   3    -0.165620272990E+02    0.41649E-04   -0.31392E-04  3446   0.160E-01    0.869E-02
DAV:   4    -0.165620681533E+02   -0.40854E-04   -0.22925E-04  3362   0.203E-01    0.727E-02
DAV:   5    -0.165620226258E+02    0.45528E-04   -0.15124E-04  3386   0.165E-01    0.118E-02
DAV:   6    -0.165620238502E+02   -0.12245E-05   -0.22519E-05  3236   0.355E-02    0.965E-03
DAV:   7    -0.165620230623E+02    0.78795E-06   -0.20281E-06  3296   0.880E-03    0.556E-03
DAV:   8    -0.165620228713E+02    0.19096E-06   -0.40827E-06  3308   0.110E-02    0.240E-03
DAV:   9    -0.165620228965E+02   -0.25191E-07   -0.47862E-07  3380   0.424E-03
   2 F= -.17776623E+02 E0= -.17776623E+02  d E =-.317592E-02
stress tensor set to zero in row and column 1
stress tensor set to zero in row and column 2
stress tensor set to zero in row and column 3
 BRION: g(F)=  0.188E-02 g(S)=  0.000E+00 retain N=  1 mean eig= 1.09
 eig:   1.091
 bond charge predicted
       N       E                     dE             d eps       ncg     rms          rms(c)
DAV:   1    -0.165626022513E+02   -0.57938E-03   -0.19172E-01  2816   0.226E+00    0.266E-01
DAV:   2    -0.165633133495E+02   -0.71110E-03   -0.82108E-03  3326   0.516E-01    0.676E-02
DAV:   3    -0.165633109047E+02    0.24448E-05   -0.14459E-04  3356   0.125E-01    0.493E-02
DAV:   4    -0.165633098775E+02    0.10272E-05   -0.59093E-05  3428   0.112E-01    0.374E-02
DAV:   5    -0.165633031341E+02    0.67433E-05   -0.48166E-05  3182   0.707E-02    0.672E-03
DAV:   6    -0.165633029155E+02    0.21861E-06   -0.80539E-06  3506   0.185E-02    0.497E-03
DAV:   7    -0.165633025556E+02    0.35992E-06   -0.72461E-07  3566   0.520E-03    0.310E-03
DAV:   8    -0.165633026051E+02   -0.49499E-07   -0.67502E-07  3128   0.436E-03    0.928E-04
DAV:   9    -0.165633026244E+02   -0.19319E-07   -0.63659E-08  2558   0.149E-03
   3 F= -.17778359E+02 E0= -.17778359E+02  d E =-.173647E-02
stress tensor set to zero in row and column 1
stress tensor set to zero in row and column 2
stress tensor set to zero in row and column 3
 BRION: g(F)=  0.863E-03 g(S)=  0.000E+00 retain N=  2 mean eig= 1.86
 eig:   1.859  1.859
 bond charge predicted
       N       E                     dE             d eps       ncg     rms          rms(c)
DAV:   1    -0.165607590953E+02    0.25435E-02   -0.90126E-01  2816   0.500E+00    0.559E-01
DAV:   2    -0.165638999377E+02   -0.31408E-02   -0.35601E-02  3236   0.109E+00    0.161E-01
DAV:   3    -0.165638512264E+02    0.48711E-04   -0.54612E-04  3428   0.207E-01    0.115E-01
DAV:   4    -0.165639094431E+02   -0.58217E-04   -0.35870E-04  3326   0.254E-01    0.877E-02
DAV:   5    -0.165638322703E+02    0.77173E-04   -0.24592E-04  3278   0.205E-01    0.132E-02
DAV:   6    -0.165638312167E+02    0.10536E-05   -0.33568E-05  3170   0.411E-02    0.126E-02
DAV:   7    -0.165638297134E+02    0.15033E-05   -0.24807E-06  3482   0.964E-03    0.828E-03
DAV:   8    -0.165638290495E+02    0.66396E-06   -0.54121E-06  3122   0.128E-02    0.348E-03
DAV:   9    -0.165638291323E+02   -0.82840E-07   -0.73989E-07  3560   0.520E-03    0.773E-04
DAV:  10    -0.165638291697E+02   -0.37412E-07   -0.14216E-08  2350   0.917E-04
   4 F= -.17779862E+02 E0= -.17779862E+02  d E =-.150337E-02
stress tensor set to zero in row and column 1
stress tensor set to zero in row and column 2
stress tensor set to zero in row and column 3
 BRION: g(F)=  0.736E-05 g(S)=  0.000E+00 retain N=  2 mean eig= 3.42
 eig:   3.425  3.425
 bond charge predicted
       N       E                     dE             d eps       ncg     rms          rms(c)
DAV:   1    -0.165638453029E+02   -0.16171E-04   -0.97560E-04  3014   0.166E-01    0.125E-02
DAV:   2    -0.165638477812E+02   -0.24782E-05   -0.26568E-05  3308   0.390E-02    0.860E-03
DAV:   3    -0.165638474663E+02    0.31483E-06   -0.42156E-06  3290   0.267E-02    0.435E-03
DAV:   4    -0.165638473324E+02    0.13395E-06   -0.91312E-07  3284   0.148E-02    0.336E-03
DAV:   5    -0.165638473683E+02   -0.35924E-07   -0.21080E-07  2998   0.473E-03
   5 F= -.17779868E+02 E0= -.17779868E+02  d E =-.587004E-05
stress tensor set to zero in row and column 1
stress tensor set to zero in row and column 2
stress tensor set to zero in row and column 3
 BRION: g(F)=  0.322E-05 g(S)=  0.000E+00 retain N=  3 mean eig= 3.84
 eig:   3.888  3.888  3.752
 bond charge predicted
       N       E                     dE             d eps       ncg     rms          rms(c)
DAV:   1    -0.165638477323E+02   -0.39990E-06   -0.15804E-03  2816   0.213E-01    0.156E-02
DAV:   2    -0.165638527479E+02   -0.50156E-05   -0.56220E-05  3308   0.495E-02    0.869E-03
DAV:   3    -0.165638526613E+02    0.86598E-07   -0.41807E-06  3326   0.261E-02    0.504E-03
DAV:   4    -0.165638524118E+02    0.24953E-06   -0.11521E-06  3110   0.169E-02    0.420E-03
DAV:   5    -0.165638524454E+02   -0.33605E-07   -0.33629E-07  3110   0.582E-03
   6 F= -.17779873E+02 E0= -.17779873E+02  d E =-.456283E-05
stress tensor set to zero in row and column 1
stress tensor set to zero in row and column 2
stress tensor set to zero in row and column 3
 BRION: g(F)=  0.897E-06 g(S)=  0.000E+00 retain N=  2 mean eig= 7.20
 eig:   7.196  7.196
 bond charge predicted
       N       E                     dE             d eps       ncg     rms          rms(c)
DAV:   1    -0.165638481550E+02    0.42567E-05   -0.46279E-04  3296   0.114E-01    0.825E-03
DAV:   2    -0.165638497505E+02   -0.15955E-05   -0.17415E-05  3572   0.246E-02    0.296E-03
DAV:   3    -0.165638497475E+02    0.29941E-08   -0.29163E-07  3404   0.511E-03
   7 F= -.17779874E+02 E0= -.17779874E+02  d E =-.132097E-05
stress tensor set to zero in row and column 1
stress tensor set to zero in row and column 2
stress tensor set to zero in row and column 3
 BRION: g(F)=  0.251E-06 g(S)=  0.000E+00 retain N=  2 mean eig= 5.70
 eig:   5.700  5.700
 bond charge predicted
       N       E                     dE             d eps       ncg     rms          rms(c)
DAV:   1    -0.165638512936E+02   -0.15431E-05   -0.44117E-05  3146   0.358E-02    0.291E-03
DAV:   2    -0.165638514276E+02   -0.13399E-06   -0.14609E-06  3368   0.800E-03    0.156E-03
DAV:   3    -0.165638514099E+02    0.17717E-07   -0.55145E-08  2260   0.305E-03
   8 F= -.17779874E+02 E0= -.17779874E+02  d E =-.202626E-06
stress tensor set to zero in row and column 1
stress tensor set to zero in row and column 2
stress tensor set to zero in row and column 3
 BRION: g(F)=  0.137E-06 g(S)=  0.000E+00 retain N=  2 mean eig= 1.74
 eig:   2.552  0.935
 reached required accuracy - stopping structural energy minimisation
 writing wavefunctions
