 vasp.5.4.4.16052018 (build Dec 07 2020 11:33:42) complex                       
  
 executed on             LinuxIFC date 2020.12.16  03:04:22
 running on    8 total cores
 distrk:  each k-point on    2 cores,    4 groups
 distr:  one band on NCORES_PER_BAND=   1 cores,    2 groups


--------------------------------------------------------------------------------------------------------


 INCAR:
 POTCAR:    PAW_PBE Cl 06Sep2000                  
 POTCAR:    PAW_PBE Br 06Sep2000                  
 POTCAR:    PAW_PBE Pt 04Feb2005                  

 ----------------------------------------------------------------------------- 
|                                                                             |
|           W    W    AA    RRRRR   N    N  II  N    N   GGGG   !!!           |
|           W    W   A  A   R    R  NN   N  II  NN   N  G    G  !!!           |
|           W    W  A    A  R    R  N N  N  II  N N  N  G       !!!           |
|           W WW W  AAAAAA  RRRRR   N  N N  II  N  N N  G  GGG   !            |
|           WW  WW  A    A  R   R   N   NN  II  N   NN  G    G                |
|           W    W  A    A  R    R  N    N  II  N    N   GGGG   !!!           |
|                                                                             |
|      For optimal performance we recommend to set                            |
|        NCORE= 4 - approx SQRT( number of cores)                             |
|      NCORE specifies how many cores store one orbital (NPAR=cpu/NCORE).     |
|      This setting can  greatly improve the performance of VASP for DFT.     |
|      The default,   NCORE=1            might be grossly inefficient         |
|      on modern multi-core architectures or massively parallel machines.     |
|      Do your own testing !!!!                                               |
|      Unfortunately you need to use the default for GW and RPA calculations. |
|      (for HF NCORE is supported but not extensively tested yet)             |
|                                                                             |
 ----------------------------------------------------------------------------- 


 ----------------------------------------------------------------------------- 
|                                                                             |
|           W    W    AA    RRRRR   N    N  II  N    N   GGGG   !!!           |
|           W    W   A  A   R    R  NN   N  II  NN   N  G    G  !!!           |
|           W    W  A    A  R    R  N N  N  II  N N  N  G       !!!           |
|           W WW W  AAAAAA  RRRRR   N  N N  II  N  N N  G  GGG   !            |
|           WW  WW  A    A  R   R   N   NN  II  N   NN  G    G                |
|           W    W  A    A  R    R  N    N  II  N    N   GGGG   !!!           |
|                                                                             |
|      You have enabled k-point parallelism (KPAR>1).                         |
|      This developmental code was originally  written by Paul Kent at ORNL,  |
|      and carefully double checked in Vienna.                                |
|      GW as well as linear response parallelism added by Martijn Marsman     |
|      and Georg Kresse.                                                      |
|      Carefully verify results versus KPAR=1.                                |
|      Report problems to Paul Kent and Vienna.                               |
|                                                                             |
 ----------------------------------------------------------------------------- 

 POTCAR:    PAW_PBE Cl 06Sep2000                  
   VRHFIN =Cl: s2p5                                                             
   LEXCH  = PE                                                                  
   EATOM  =   409.7259 eV,   30.1140 Ry                                         
                                                                                
   TITEL  = PAW_PBE Cl 06Sep2000                                                
   LULTRA =        F    use ultrasoft PP ?                                      
   IUNSCR =        1    unscreen: 0-lin 1-nonlin 2-no                           
   RPACOR =    1.500    partial core radius                                     
   POMASS =   35.453; ZVAL   =    7.000    mass and valenz                      
   RCORE  =    1.900    outmost cutoff radius                                   
   RWIGS  =    2.100; RWIGS  =    1.111    wigner-seitz radius (au A)           
   ENMAX  =  262.472; ENMIN  =  196.854 eV                                      
   ICORE  =        2    local potential                                         
   LCOR   =        T    correct aug charges                                     
   LPAW   =        T    paw PP                                                  
   EAUG   =  356.192                                                            
   DEXC   =    0.000                                                            
   RMAX   =    1.945    core radius for proj-oper                               
   RAUG   =    1.300    factor for augmentation sphere                          
   RDEP   =    2.020    radius for radial grids                                 
   RDEPT  =    1.678    core radius for aug-charge                              
                                                                                
   Atomic configuration                                                         
    6 entries                                                                   
     n  l   j            E        occ.                                          
     1  0  0.50     -2751.1850   2.0000                                         
     2  0  0.50      -252.6861   2.0000                                         
     2  1  1.50      -191.6157   6.0000                                         
     3  0  0.50       -20.6916   2.0000                                         
     3  1  0.50        -8.5949   5.0000                                         
     3  2  1.50        -8.1635   0.0000                                         
   Description                                                                  
     l       E           TYP  RCUT    TYP  RCUT                                 
     0    -20.6915656     23  1.900                                             
     0    -22.0521482     23  1.900                                             
     1     -8.5948577     23  1.900                                             
     1     -5.3847331     23  1.900                                             
     2     -8.1634956     23  1.900                                             
  local pseudopotential read in
  partial core-charges read in
  partial kinetic energy density read in
  atomic valenz-charges read in
  non local Contribution for L=           0  read in
    real space projection operators read in
  non local Contribution for L=           0  read in
    real space projection operators read in
  non local Contribution for L=           1  read in
    real space projection operators read in
  non local Contribution for L=           1  read in
    real space projection operators read in
    PAW grid and wavefunctions read in
 
   number of l-projection  operators is LMAX  =           4
   number of lm-projection operators is LMMAX =           8
 
 POTCAR:    PAW_PBE Br 06Sep2000                  
   VRHFIN =Br: s2p5                                                             
   LEXCH  = PE                                                                  
   EATOM  =   368.4488 eV,   27.0802 Ry                                         
                                                                                
   TITEL  = PAW_PBE Br 06Sep2000                                                
   LULTRA =        F    use ultrasoft PP ?                                      
   IUNSCR =        1    unscreen: 0-lin 1-nonlin 2-no                           
   RPACOR =    1.900    partial core radius                                     
   POMASS =   79.904; ZVAL   =    7.000    mass and valenz                      
   RCORE  =    2.100    outmost cutoff radius                                   
   RWIGS  =    2.200; RWIGS  =    1.164    wigner-seitz radius (au A)           
   ENMAX  =  216.285; ENMIN  =  162.214 eV                                      
   ICORE  =        3    local potential                                         
   LCOR   =        T    correct aug charges                                     
   LPAW   =        T    paw PP                                                  
   EAUG   =  503.852                                                            
   DEXC   =    0.000                                                            
   RMAX   =    2.139    core radius for proj-oper                               
   RAUG   =    1.300    factor for augmentation sphere                          
   RDEP   =    2.186    radius for radial grids                                 
   RDEPT  =    1.890    core radius for aug-charge                              
                                                                                
   Atomic configuration                                                         
   10 entries                                                                   
     n  l   j            E        occ.                                          
     1  0  0.50    -13316.2796   2.0000                                         
     2  0  0.50     -1732.8239   2.0000                                         
     2  1  1.50     -1528.2193   6.0000                                         
     3  0  0.50      -238.0460   2.0000                                         
     3  1  1.50      -173.4609   6.0000                                         
     3  2  2.50       -66.7132  10.0000                                         
     4  0  0.50       -20.1334   2.0000                                         
     4  1  0.50        -7.8591   5.0000                                         
     4  2  2.50        -8.1635   0.0000                                         
     4  3  2.50        -8.1635   0.0000                                         
   Description                                                                  
     l       E           TYP  RCUT    TYP  RCUT                                 
     0    -20.1333652     23  2.100                                             
     0    -21.4939478     23  2.100                                             
     1     -7.8591052     23  2.100                                             
     1     -3.1608434     23  2.100                                             
     2     -8.1634956     23  2.100                                             
     3     -1.3605826      7  2.100                                             
  local pseudopotential read in
  partial core-charges read in
  partial kinetic energy density read in
  atomic valenz-charges read in
  non local Contribution for L=           0  read in
    real space projection operators read in
  non local Contribution for L=           0  read in
    real space projection operators read in
  non local Contribution for L=           1  read in
    real space projection operators read in
  non local Contribution for L=           1  read in
    real space projection operators read in
  non local Contribution for L=           2  read in
    real space projection operators read in
    PAW grid and wavefunctions read in
 
   number of l-projection  operators is LMAX  =           5
   number of lm-projection operators is LMMAX =          13
 
 POTCAR:    PAW_PBE Pt 04Feb2005                  
   VRHFIN =Pt: s1d9                                                             
   LEXCH  = PE                                                                  
   EATOM  =   729.1176 eV,   53.5886 Ry                                         
                                                                                
   TITEL  = PAW_PBE Pt 04Feb2005                                                
   LULTRA =        F    use ultrasoft PP ?                                      
   IUNSCR =        1    unscreen: 0-lin 1-nonlin 2-no                           
   RPACOR =    2.330    partial core radius                                     
   POMASS =  195.080; ZVAL   =   10.000    mass and valenz                      
   RCORE  =    2.600    outmost cutoff radius                                   
   RWIGS  =    2.750; RWIGS  =    1.455    wigner-seitz radius (au A)           
   ENMAX  =  230.283; ENMIN  =  172.712 eV                                      
   ICORE  =        3    local potential                                         
   LCOR   =        T    correct aug charges                                     
   LPAW   =        T    paw PP                                                  
   EAUG   =  358.966                                                            
   DEXC   =    0.000                                                            
   RMAX   =    2.658    core radius for proj-oper                               
   RAUG   =    1.300    factor for augmentation sphere                          
   RDEP   =    2.761    radius for radial grids                                 
   RDEPT  =    2.203    core radius for aug-charge                              
                                                                                
   Atomic configuration                                                         
   16 entries                                                                   
     n  l   j            E        occ.                                          
     1  0  0.50    -78401.1885   2.0000                                         
     2  0  0.50    -13770.7750   2.0000                                         
     2  1  1.50    -11931.0468   6.0000                                         
     3  0  0.50     -3234.7234   2.0000                                         
     3  1  1.50     -2699.2216   6.0000                                         
     3  2  2.50     -2119.5714  10.0000                                         
     4  0  0.50      -695.1528   2.0000                                         
     4  1  1.50      -519.6034   6.0000                                         
     4  2  2.50      -306.6786  10.0000                                         
     4  3  3.50       -70.1041  14.0000                                         
     5  0  0.50      -101.7747   2.0000                                         
     5  1  1.50       -55.9873   6.0000                                         
     5  2  2.50        -6.1423   9.0000                                         
     6  0  0.50        -5.6573   1.0000                                         
     6  1  1.50        -6.8029   0.0000                                         
     5  3  2.50        -1.3606   0.0000                                         
   Description                                                                  
     l       E           TYP  RCUT    TYP  RCUT                                 
     2     -6.1423404     23  2.500                                             
     2     -7.5029230     23  2.500                                             
     0     -5.6573207     23  2.500                                             
     0      0.7416693     23  2.500                                             
     1     -2.7211652     23  2.600                                             
     1     20.4087390     23  2.600                                             
     3     -1.3605826     23  2.500                                             
  local pseudopotential read in
  partial core-charges read in
  partial kinetic energy density read in
  atomic valenz-charges read in
  non local Contribution for L=           2  read in
    real space projection operators read in
  non local Contribution for L=           2  read in
    real space projection operators read in
  non local Contribution for L=           0  read in
    real space projection operators read in
  non local Contribution for L=           0  read in
    real space projection operators read in
  non local Contribution for L=           1  read in
    real space projection operators read in
  non local Contribution for L=           1  read in
    real space projection operators read in
    PAW grid and wavefunctions read in
 
   number of l-projection  operators is LMAX  =           6
   number of lm-projection operators is LMMAX =          18
 
  PAW_PBE Cl 06Sep2000                  :
 energy of atom  1       EATOM= -409.7259
 kinetic energy error for atom=    0.0089 (will be added to EATOM!!)
  PAW_PBE Br 06Sep2000                  :
 energy of atom  2       EATOM= -368.4488
 kinetic energy error for atom=    0.0032 (will be added to EATOM!!)
  PAW_PBE Pt 04Feb2005                  :
 energy of atom  3       EATOM= -729.1176
 kinetic energy error for atom=    0.0056 (will be added to EATOM!!)
 
 
 POSCAR: ClBrPt2                                 
  positions in direct lattice
  velocities in cartesian coordinates
 exchange correlation table for  LEXCH =        8
   RHO(1)=    0.500       N(1)  =     2000
   RHO(2)=  100.500       N(2)  =     4000
 


--------------------------------------------------------------------------------------------------------


 ion  position               nearest neighbor table
   1  0.000  0.500  0.170-   4 2.51   4 2.51   4 2.52
   2  0.000  0.500  0.385-   3 2.60   3 2.60   3 2.61
   3  0.333  0.167  0.310-   4 2.59   2 2.60   4 2.60   2 2.60   4 2.60   2 2.61
   4  0.667  0.833  0.236-   1 2.51   1 2.51   1 2.52   3 2.59   3 2.60   3 2.60
 

IMPORTANT INFORMATION: All symmetrisations will be switched off!
NOSYMM: (Re-)initialisation of all symmetry stuff for point group C_1.

 
 
 KPOINTS: Automatic mesh                          

Automatic generation of k-mesh.
Space group operators:
 irot       det(A)        alpha          n_x          n_y          n_z        tau_x        tau_y        tau_z
    1     1.000000     0.000000     1.000000     0.000000     0.000000     0.000000     0.000000     0.000000
 
 Subroutine IBZKPT returns following result:
 ===========================================
 
 Found     64 irreducible k-points:
 
 Following reciprocal coordinates:
            Coordinates               Weight
  0.000000  0.000000  0.000000      1.000000
  0.125000 -0.000000  0.000000      1.000000
  0.250000 -0.000000  0.000000      1.000000
  0.375000 -0.000000  0.000000      1.000000
  0.500000 -0.000000  0.000000      1.000000
 -0.375000  0.000000  0.000000      1.000000
 -0.250000  0.000000  0.000000      1.000000
 -0.125000  0.000000  0.000000      1.000000
 -0.000000  0.125000  0.000000      1.000000
  0.125000  0.125000  0.000000      1.000000
  0.250000  0.125000  0.000000      1.000000
  0.375000  0.125000  0.000000      1.000000
  0.500000  0.125000  0.000000      1.000000
 -0.375000  0.125000  0.000000      1.000000
 -0.250000  0.125000  0.000000      1.000000
 -0.125000  0.125000  0.000000      1.000000
 -0.000000  0.250000  0.000000      1.000000
  0.125000  0.250000  0.000000      1.000000
  0.250000  0.250000  0.000000      1.000000
  0.375000  0.250000  0.000000      1.000000
  0.500000  0.250000  0.000000      1.000000
 -0.375000  0.250000  0.000000      1.000000
 -0.250000  0.250000  0.000000      1.000000
 -0.125000  0.250000  0.000000      1.000000
  0.000000  0.375000  0.000000      1.000000
  0.125000  0.375000  0.000000      1.000000
  0.250000  0.375000  0.000000      1.000000
  0.375000  0.375000  0.000000      1.000000
  0.500000  0.375000  0.000000      1.000000
 -0.375000  0.375000  0.000000      1.000000
 -0.250000  0.375000  0.000000      1.000000
 -0.125000  0.375000  0.000000      1.000000
 -0.000000  0.500000  0.000000      1.000000
  0.125000  0.500000  0.000000      1.000000
  0.250000  0.500000  0.000000      1.000000
  0.375000  0.500000  0.000000      1.000000
  0.500000  0.500000  0.000000      1.000000
 -0.375000  0.500000  0.000000      1.000000
 -0.250000  0.500000  0.000000      1.000000
 -0.125000  0.500000  0.000000      1.000000
 -0.000000 -0.375000  0.000000      1.000000
  0.125000 -0.375000  0.000000      1.000000
  0.250000 -0.375000  0.000000      1.000000
  0.375000 -0.375000  0.000000      1.000000
  0.500000 -0.375000  0.000000      1.000000
 -0.375000 -0.375000  0.000000      1.000000
 -0.250000 -0.375000  0.000000      1.000000
 -0.125000 -0.375000  0.000000      1.000000
  0.000000 -0.250000  0.000000      1.000000
  0.125000 -0.250000  0.000000      1.000000
  0.250000 -0.250000  0.000000      1.000000
  0.375000 -0.250000  0.000000      1.000000
  0.500000 -0.250000  0.000000      1.000000
 -0.375000 -0.250000  0.000000      1.000000
 -0.250000 -0.250000  0.000000      1.000000
 -0.125000 -0.250000  0.000000      1.000000
  0.000000 -0.125000  0.000000      1.000000
  0.125000 -0.125000  0.000000      1.000000
  0.250000 -0.125000  0.000000      1.000000
  0.375000 -0.125000  0.000000      1.000000
  0.500000 -0.125000  0.000000      1.000000
 -0.375000 -0.125000  0.000000      1.000000
 -0.250000 -0.125000  0.000000      1.000000
 -0.125000 -0.125000  0.000000      1.000000
 
 Following cartesian coordinates:
            Coordinates               Weight
  0.000000  0.000000  0.000000      1.000000
  0.034045  0.019013  0.000000      1.000000
  0.068090  0.038027  0.000000      1.000000
  0.102135  0.057040  0.000000      1.000000
  0.136179  0.076054  0.000000      1.000000
 -0.102135 -0.057040  0.000000      1.000000
 -0.068090 -0.038027  0.000000      1.000000
 -0.034045 -0.019013  0.000000      1.000000
  0.000388  0.039085  0.000000      1.000000
  0.034433  0.058099  0.000000      1.000000
  0.068477  0.077112  0.000000      1.000000
  0.102522  0.096126  0.000000      1.000000
  0.136567  0.115139  0.000000      1.000000
 -0.101747 -0.017955  0.000000      1.000000
 -0.067702  0.001059  0.000000      1.000000
 -0.033657  0.020072  0.000000      1.000000
  0.000776  0.078171  0.000000      1.000000
  0.034820  0.097184  0.000000      1.000000
  0.068865  0.116198  0.000000      1.000000
  0.102910  0.135211  0.000000      1.000000
  0.136955  0.154225  0.000000      1.000000
 -0.101359  0.021131  0.000000      1.000000
 -0.067314  0.040144  0.000000      1.000000
 -0.033269  0.059158  0.000000      1.000000
  0.001163  0.117256  0.000000      1.000000
  0.035208  0.136270  0.000000      1.000000
  0.069253  0.155283  0.000000      1.000000
  0.103298  0.174297  0.000000      1.000000
  0.137343  0.193310  0.000000      1.000000
 -0.100971  0.060216  0.000000      1.000000
 -0.066926  0.079230  0.000000      1.000000
 -0.032882  0.098243  0.000000      1.000000
  0.001551  0.156342  0.000000      1.000000
  0.035596  0.175355  0.000000      1.000000
  0.069641  0.194369  0.000000      1.000000
  0.103686  0.213382  0.000000      1.000000
  0.137730  0.232396  0.000000      1.000000
 -0.100584  0.099302  0.000000      1.000000
 -0.066539  0.118315  0.000000      1.000000
 -0.032494  0.137329  0.000000      1.000000
 -0.001163 -0.117256  0.000000      1.000000
  0.032882 -0.098243  0.000000      1.000000
  0.066926 -0.079230  0.000000      1.000000
  0.100971 -0.060216  0.000000      1.000000
  0.135016 -0.041203  0.000000      1.000000
 -0.103298 -0.174297  0.000000      1.000000
 -0.069253 -0.155283  0.000000      1.000000
 -0.035208 -0.136270  0.000000      1.000000
 -0.000776 -0.078171  0.000000      1.000000
  0.033269 -0.059158  0.000000      1.000000
  0.067314 -0.040144  0.000000      1.000000
  0.101359 -0.021131  0.000000      1.000000
  0.135404 -0.002117  0.000000      1.000000
 -0.102910 -0.135211  0.000000      1.000000
 -0.068865 -0.116198  0.000000      1.000000
 -0.034820 -0.097184  0.000000      1.000000
 -0.000388 -0.039085  0.000000      1.000000
  0.033657 -0.020072  0.000000      1.000000
  0.067702 -0.001059  0.000000      1.000000
  0.101747  0.017955  0.000000      1.000000
  0.135792  0.036968  0.000000      1.000000
 -0.102522 -0.096126  0.000000      1.000000
 -0.068477 -0.077112  0.000000      1.000000
 -0.034433 -0.058099  0.000000      1.000000
 


--------------------------------------------------------------------------------------------------------




 Dimension of arrays:
   k-points           NKPTS =     64   k-points in BZ     NKDIM =     64   number of bands    NBANDS=     22
   number of dos      NEDOS =    301   number of ions     NIONS =      4
   non local maximal  LDIM  =      6   non local SUM 2l+1 LMDIM =     18
   total plane-waves  NPLWV =  80640
   max r-space proj   IRMAX =      1   max aug-charges    IRDMAX=  20879
   dimension x,y,z NGX =    24 NGY =   24 NGZ =  140
   dimension x,y,z NGXF=    48 NGYF=   48 NGZF=  280
   support grid    NGXF=    48 NGYF=   48 NGZF=  280
   ions per type =               1   1   2
   NGX,Y,Z   is equivalent  to a cutoff of  10.81, 10.83, 11.64 a.u.
   NGXF,Y,Z  is equivalent  to a cutoff of  21.61, 21.66, 23.27 a.u.

 SYSTEM =  unknown system                          
 POSCAR =  ClBrPt2                                 

 Startparameter for this run:
   NWRITE =      2    write-flag & timer
   PREC   = accura    normal or accurate (medium, high low for compatibility)
   ISTART =      0    job   : 0-new  1-cont  2-samecut
   ICHARG =      2    charge: 1-file 2-atom 10-const
   ISPIN  =      1    spin polarized calculation?
   LNONCOLLINEAR =      F non collinear calculations
   LSORBIT =      F    spin-orbit coupling
   INIWAV =      1    electr: 0-lowe 1-rand  2-diag
   LASPH  =      F    aspherical Exc in radial PAW
   METAGGA=      F    non-selfconsistent MetaGGA calc.

 Electronic Relaxation 1
   ENCUT  =  400.0 eV  29.40 Ry    5.42 a.u.   6.02  6.01 32.61*2*pi/ulx,y,z
   ENINI  =  400.0     initial cutoff
   ENAUG  =  503.9 eV  augmentation charge cutoff
   NELM   =     60;   NELMIN=  2; NELMDL= -5     # of ELM steps 
   EDIFF  = 0.5E-07   stopping-criterion for ELM
   LREAL  =      F    real-space projection
   NLSPLINE    = F    spline interpolate recip. space projectors
   LCOMPAT=      F    compatible to vasp.4.4
   GGA_COMPAT  = T    GGA compatible to vasp.4.4-vasp.4.6
   LMAXPAW     = -100 max onsite density
   LMAXMIX     =    2 max onsite mixed and CHGCAR
   VOSKOWN=      0    Vosko Wilk Nusair interpolation
   ROPT   =    0.00000   0.00000   0.00000
 Ionic relaxation
   EDIFFG = 0.5E-06   stopping-criterion for IOM
   NSW    =    100    number of steps for IOM
   NBLOCK =      1;   KBLOCK =    100    inner block; outer block 
   IBRION =      1    ionic relax: 0-MD 1-quasi-New 2-CG
   NFREE  =      0    steps in history (QN), initial steepest desc. (CG)
   ISIF   =      3    stress and relaxation
   IWAVPR =     11    prediction:  0-non 1-charg 2-wave 3-comb
   ISYM   =     -1    0-nonsym 1-usesym 2-fastsym
   LCORR  =      T    Harris-Foulkes like correction to forces

   POTIM  = 0.5000    time-step for ionic-motion
   TEIN   =    0.0    initial temperature
   TEBEG  =    0.0;   TEEND  =   0.0 temperature during run
   SMASS  =  -3.00    Nose mass-parameter (am)
   estimated Nose-frequenzy (Omega)   =  0.10E-29 period in steps =****** mass=  -0.312E-27a.u.
   SCALEE = 1.0000    scale energy and forces
   NPACO  =    256;   APACO  = 16.0  distance and # of slots for P.C.
   PSTRESS=    0.0 pullay stress

  Mass of Ions in am
   POMASS =  35.45 79.90195.08
  Ionic Valenz
   ZVAL   =   7.00  7.00 10.00
  Atomic Wigner-Seitz radii
   RWIGS  =  -1.00 -1.00 -1.00
  virtual crystal weights 
   VCA    =   1.00  1.00  1.00
   NELECT =      34.0000    total number of electrons
   NUPDOWN=      -1.0000    fix difference up-down

 DOS related values:
   EMIN   =  10.00;   EMAX   =-10.00  energy-range for DOS
   EFERMI =   0.00
   ISMEAR =     0;   SIGMA  =   0.10  broadening in eV -4-tet -1-fermi 0-gaus

 Electronic relaxation 2 (details)
   IALGO  =     38    algorithm
   LDIAG  =      T    sub-space diagonalisation (order eigenvalues)
   LSUBROT=      F    optimize rotation matrix (better conditioning)
   TURBO    =      0    0=normal 1=particle mesh
   IRESTART =      0    0=no restart 2=restart with 2 vectors
   NREBOOT  =      0    no. of reboots
   NMIN     =      0    reboot dimension
   EREF     =   0.00    reference energy to select bands
   IMIX   =      4    mixing-type and parameters
     AMIX     =   0.40;   BMIX     =  1.00
     AMIX_MAG =   1.60;   BMIX_MAG =  1.00
     AMIN     =   0.10
     WC   =   100.;   INIMIX=   1;  MIXPRE=   1;  MAXMIX= -45

 Intra band minimization:
   WEIMIN = 0.0010     energy-eigenvalue tresh-hold
   EBREAK =  0.57E-09  absolut break condition
   DEPER  =   0.30     relativ break condition  

   TIME   =   0.40     timestep for ELM

  volume/ion in A,a.u.               =      59.04       398.41
  Fermi-wavevector in a.u.,A,eV,Ry     =   0.858030  1.621442 10.016821  0.736216
  Thomas-Fermi vector in A             =   1.975173
 
 Write flags
   LWAVE        =      T    write WAVECAR
   LDOWNSAMPLE  =      F    k-point downsampling of WAVECAR
   LCHARG       =      T    write CHGCAR
   LVTOT        =      F    write LOCPOT, total local potential
   LVHAR        =      F    write LOCPOT, Hartree potential only
   LELF         =      F    write electronic localiz. function (ELF)
   LORBIT       =      0    0 simple, 1 ext, 2 COOP (PROOUT), +10 PAW based schemes


 Dipole corrections
   LMONO  =      F    monopole corrections only (constant potential shift)
   LDIPOL =      T    correct potential (dipole corrections)
   IDIPOL =      3    1-x, 2-y, 3-z, 4-all directions 
   EPSILON=  1.0000000 bulk dielectric constant

 Exchange correlation treatment:
   GGA     =    --    GGA type
   LEXCH   =     8    internal setting for exchange type
   VOSKOWN=      0    Vosko Wilk Nusair interpolation
   LHFCALC =     F    Hartree Fock is set to
   LHFONE  =     F    Hartree Fock one center treatment
   AEXX    =    0.0000 exact exchange contribution

 Linear response parameters
   LEPSILON=     F    determine dielectric tensor
   LRPA    =     F    only Hartree local field effects (RPA)
   LNABLA  =     F    use nabla operator in PAW spheres
   LVEL    =     F    velocity operator in full k-point grid
   LINTERFAST=   F  fast interpolation
   KINTER  =     0    interpolate to denser k-point grid
   CSHIFT  =0.1000    complex shift for real part using Kramers Kronig
   OMEGAMAX=  -1.0    maximum frequency
   DEG_THRESHOLD= 0.2000000E-02 threshold for treating states as degnerate
   RTIME   =   -0.100 relaxation time in fs
  (WPLASMAI=    0.000 imaginary part of plasma frequency in eV, 0.658/RTIME)
   DFIELD  = 0.0000000 0.0000000 0.0000000 field for delta impulse in time
 
 Orbital magnetization related:
   ORBITALMAG=     F  switch on orbital magnetization
   LCHIMAG   =     F  perturbation theory with respect to B field
   DQ        =  0.001000  dq finite difference perturbation B field
   LLRAUG    =     F  two centre corrections for induced B field



--------------------------------------------------------------------------------------------------------


 quasi-Newton-method for relaxation of ions
 charge density and potential will be updated during run
 non-spin polarized calculation
 Variant of blocked Davidson
 Davidson routine will perform the subspace rotation
 perform sub-space diagonalisation
    after iterative eigenvector-optimisation
 modified Broyden-mixing scheme, WC =      100.0
 initial mixing is a Kerker type mixing with AMIX =  0.4000 and BMIX =      1.0000
 Hartree-type preconditioning will be used
 using additional bands            5
 reciprocal scheme for non local part
 use partial core corrections
 calculate Harris-corrections to forces 
   (improved forces if not selfconsistent)
 use gradient corrections 
 use of overlap-Matrix (Vanderbilt PP)
 Gauss-broadening in eV      SIGMA  =   0.10


--------------------------------------------------------------------------------------------------------


  energy-cutoff  :      400.00
  volume of cell :      236.15
      direct lattice vectors                 reciprocal lattice vectors
     3.692083289 -0.036629028  0.000000000     0.272358847  0.152107424  0.000000000
    -1.796041249  3.215935895  0.000000000     0.003102126  0.312683953  0.000000000
     0.000000000  0.000000000 20.000000000     0.000000000  0.000000000  0.050000000

  length of vectors
     3.692264982  3.683477684 20.000000000     0.311955141  0.312699340  0.050000000


 
 k-points in units of 2pi/SCALE and weight: Automatic mesh                          
   0.00000000  0.00000000  0.00000000       0.016
   0.03404486  0.01901343  0.00000000       0.016
   0.06808971  0.03802686  0.00000000       0.016
   0.10213457  0.05704028  0.00000000       0.016
   0.13617942  0.07605371  0.00000000       0.016
  -0.10213457 -0.05704028  0.00000000       0.016
  -0.06808971 -0.03802686  0.00000000       0.016
  -0.03404486 -0.01901343  0.00000000       0.016
   0.00038777  0.03908549  0.00000000       0.016
   0.03443262  0.05809892  0.00000000       0.016
   0.06847748  0.07711235  0.00000000       0.016
   0.10252233  0.09612578  0.00000000       0.016
   0.13656719  0.11513921  0.00000000       0.016
  -0.10174680 -0.01795479  0.00000000       0.016
  -0.06770195  0.00105864  0.00000000       0.016
  -0.03365709  0.02007207  0.00000000       0.016
   0.00077553  0.07817099  0.00000000       0.016
   0.03482039  0.09718442  0.00000000       0.016
   0.06886524  0.11619784  0.00000000       0.016
   0.10291010  0.13521127  0.00000000       0.016
   0.13695496  0.15422470  0.00000000       0.016
  -0.10135904  0.02113070  0.00000000       0.016
  -0.06731418  0.04014413  0.00000000       0.016
  -0.03326932  0.05915756  0.00000000       0.016
   0.00116330  0.11725648  0.00000000       0.016
   0.03520815  0.13626991  0.00000000       0.016
   0.06925301  0.15528334  0.00000000       0.016
   0.10329786  0.17429677  0.00000000       0.016
   0.13734272  0.19331019  0.00000000       0.016
  -0.10097127  0.06021620  0.00000000       0.016
  -0.06692641  0.07922963  0.00000000       0.016
  -0.03288156  0.09824305  0.00000000       0.016
   0.00155106  0.15634198  0.00000000       0.016
   0.03559592  0.17535540  0.00000000       0.016
   0.06964077  0.19436883  0.00000000       0.016
   0.10368563  0.21338226  0.00000000       0.016
   0.13773049  0.23239569  0.00000000       0.016
  -0.10058350  0.09930169  0.00000000       0.016
  -0.06653865  0.11831512  0.00000000       0.016
  -0.03249379  0.13732855  0.00000000       0.016
  -0.00116330 -0.11725648  0.00000000       0.016
   0.03288156 -0.09824305  0.00000000       0.016
   0.06692641 -0.07922963  0.00000000       0.016
   0.10097127 -0.06021620  0.00000000       0.016
   0.13501613 -0.04120277  0.00000000       0.016
  -0.10329786 -0.17429677  0.00000000       0.016
  -0.06925301 -0.15528334  0.00000000       0.016
  -0.03520815 -0.13626991  0.00000000       0.016
  -0.00077553 -0.07817099  0.00000000       0.016
   0.03326932 -0.05915756  0.00000000       0.016
   0.06731418 -0.04014413  0.00000000       0.016
   0.10135904 -0.02113070  0.00000000       0.016
   0.13540389 -0.00211728  0.00000000       0.016
  -0.10291010 -0.13521127  0.00000000       0.016
  -0.06886524 -0.11619784  0.00000000       0.016
  -0.03482039 -0.09718442  0.00000000       0.016
  -0.00038777 -0.03908549  0.00000000       0.016
   0.03365709 -0.02007207  0.00000000       0.016
   0.06770195 -0.00105864  0.00000000       0.016
   0.10174680  0.01795479  0.00000000       0.016
   0.13579166  0.03696822  0.00000000       0.016
  -0.10252233 -0.09612578  0.00000000       0.016
  -0.06847748 -0.07711235  0.00000000       0.016
  -0.03443262 -0.05809892  0.00000000       0.016
 
 k-points in reciprocal lattice and weights: Automatic mesh                          
   0.00000000  0.00000000  0.00000000       0.016
   0.12500000 -0.00000000  0.00000000       0.016
   0.25000000 -0.00000000  0.00000000       0.016
   0.37500000 -0.00000000  0.00000000       0.016
   0.50000000 -0.00000000  0.00000000       0.016
  -0.37500000  0.00000000  0.00000000       0.016
  -0.25000000  0.00000000  0.00000000       0.016
  -0.12500000  0.00000000  0.00000000       0.016
  -0.00000000  0.12500000  0.00000000       0.016
   0.12500000  0.12500000  0.00000000       0.016
   0.25000000  0.12500000  0.00000000       0.016
   0.37500000  0.12500000  0.00000000       0.016
   0.50000000  0.12500000  0.00000000       0.016
  -0.37500000  0.12500000  0.00000000       0.016
  -0.25000000  0.12500000  0.00000000       0.016
  -0.12500000  0.12500000  0.00000000       0.016
  -0.00000000  0.25000000  0.00000000       0.016
   0.12500000  0.25000000  0.00000000       0.016
   0.25000000  0.25000000  0.00000000       0.016
   0.37500000  0.25000000  0.00000000       0.016
   0.50000000  0.25000000  0.00000000       0.016
  -0.37500000  0.25000000  0.00000000       0.016
  -0.25000000  0.25000000  0.00000000       0.016
  -0.12500000  0.25000000  0.00000000       0.016
   0.00000000  0.37500000  0.00000000       0.016
   0.12500000  0.37500000  0.00000000       0.016
   0.25000000  0.37500000  0.00000000       0.016
   0.37500000  0.37500000  0.00000000       0.016
   0.50000000  0.37500000  0.00000000       0.016
  -0.37500000  0.37500000  0.00000000       0.016
  -0.25000000  0.37500000  0.00000000       0.016
  -0.12500000  0.37500000  0.00000000       0.016
  -0.00000000  0.50000000  0.00000000       0.016
   0.12500000  0.50000000  0.00000000       0.016
   0.25000000  0.50000000  0.00000000       0.016
   0.37500000  0.50000000  0.00000000       0.016
   0.50000000  0.50000000  0.00000000       0.016
  -0.37500000  0.50000000  0.00000000       0.016
  -0.25000000  0.50000000  0.00000000       0.016
  -0.12500000  0.50000000  0.00000000       0.016
  -0.00000000 -0.37500000  0.00000000       0.016
   0.12500000 -0.37500000  0.00000000       0.016
   0.25000000 -0.37500000  0.00000000       0.016
   0.37500000 -0.37500000  0.00000000       0.016
   0.50000000 -0.37500000  0.00000000       0.016
  -0.37500000 -0.37500000  0.00000000       0.016
  -0.25000000 -0.37500000  0.00000000       0.016
  -0.12500000 -0.37500000  0.00000000       0.016
   0.00000000 -0.25000000  0.00000000       0.016
   0.12500000 -0.25000000  0.00000000       0.016
   0.25000000 -0.25000000  0.00000000       0.016
   0.37500000 -0.25000000  0.00000000       0.016
   0.50000000 -0.25000000  0.00000000       0.016
  -0.37500000 -0.25000000  0.00000000       0.016
  -0.25000000 -0.25000000  0.00000000       0.016
  -0.12500000 -0.25000000  0.00000000       0.016
   0.00000000 -0.12500000  0.00000000       0.016
   0.12500000 -0.12500000  0.00000000       0.016
   0.25000000 -0.12500000  0.00000000       0.016
   0.37500000 -0.12500000  0.00000000       0.016
   0.50000000 -0.12500000  0.00000000       0.016
  -0.37500000 -0.12500000  0.00000000       0.016
  -0.25000000 -0.12500000  0.00000000       0.016
  -0.12500000 -0.12500000  0.00000000       0.016
 
 position of ions in fractional coordinates (direct lattice) 
   0.00003260  0.49996075  0.16956139
   0.00003230  0.49996081  0.38463917
   0.33336554  0.16662771  0.31010675
   0.66669896  0.83329437  0.23592599
 
 position of ions in cartesian coordinates  (Angst):
  -0.89782976  1.60784052  3.39122782
  -0.89783101  1.60784074  7.69278339
   0.93154311  0.52365318  6.20213491
   0.96487702  2.65540074  4.71851980
 


--------------------------------------------------------------------------------------------------------


 k-point  1 :   0.0000 0.0000 0.0000  plane waves:    4229
 k-point  2 :   0.1250-0.0000 0.0000  plane waves:    4247
 k-point  3 :   0.2500-0.0000 0.0000  plane waves:    4267
 k-point  4 :   0.3750-0.0000 0.0000  plane waves:    4282
 k-point  5 :   0.5000-0.0000 0.0000  plane waves:    4288
 k-point  6 :  -0.3750 0.0000 0.0000  plane waves:    4282
 k-point  7 :  -0.2500 0.0000 0.0000  plane waves:    4267
 k-point  8 :  -0.1250 0.0000 0.0000  plane waves:    4247
 k-point  9 :  -0.0000 0.1250 0.0000  plane waves:    4245
 k-point 10 :   0.1250 0.1250 0.0000  plane waves:    4256
 k-point 11 :   0.2500 0.1250 0.0000  plane waves:    4283
 k-point 12 :   0.3750 0.1250 0.0000  plane waves:    4308
 k-point 13 :   0.5000 0.1250 0.0000  plane waves:    4303
 k-point 14 :  -0.3750 0.1250 0.0000  plane waves:    4289
 k-point 15 :  -0.2500 0.1250 0.0000  plane waves:    4262
 k-point 16 :  -0.1250 0.1250 0.0000  plane waves:    4247
 k-point 17 :  -0.0000 0.2500 0.0000  plane waves:    4276
 k-point 18 :   0.1250 0.2500 0.0000  plane waves:    4285
 k-point 19 :   0.2500 0.2500 0.0000  plane waves:    4306
 k-point 20 :   0.3750 0.2500 0.0000  plane waves:    4327
 k-point 21 :   0.5000 0.2500 0.0000  plane waves:    4310
 k-point 22 :  -0.3750 0.2500 0.0000  plane waves:    4283
 k-point 23 :  -0.2500 0.2500 0.0000  plane waves:    4272
 k-point 24 :  -0.1250 0.2500 0.0000  plane waves:    4271
 k-point 25 :   0.0000 0.3750 0.0000  plane waves:    4286
 k-point 26 :   0.1250 0.3750 0.0000  plane waves:    4312
 k-point 27 :   0.2500 0.3750 0.0000  plane waves:    4334
 k-point 28 :   0.3750 0.3750 0.0000  plane waves:    4342
 k-point 29 :   0.5000 0.3750 0.0000  plane waves:    4314
 k-point 30 :  -0.3750 0.3750 0.0000  plane waves:    4280
 k-point 31 :  -0.2500 0.3750 0.0000  plane waves:    4285
 k-point 32 :  -0.1250 0.3750 0.0000  plane waves:    4289
 k-point 33 :  -0.0000 0.5000 0.0000  plane waves:    4300
 k-point 34 :   0.1250 0.5000 0.0000  plane waves:    4305
 k-point 35 :   0.2500 0.5000 0.0000  plane waves:    4320
 k-point 36 :   0.3750 0.5000 0.0000  plane waves:    4303
 k-point 37 :   0.5000 0.5000 0.0000  plane waves:    4312
 k-point 38 :  -0.3750 0.5000 0.0000  plane waves:    4303
 k-point 39 :  -0.2500 0.5000 0.0000  plane waves:    4320
 k-point 40 :  -0.1250 0.5000 0.0000  plane waves:    4305
 k-point 41 :  -0.0000-0.3750 0.0000  plane waves:    4286
 k-point 42 :   0.1250-0.3750 0.0000  plane waves:    4289
 k-point 43 :   0.2500-0.3750 0.0000  plane waves:    4285
 k-point 44 :   0.3750-0.3750 0.0000  plane waves:    4280
 k-point 45 :   0.5000-0.3750 0.0000  plane waves:    4314
 k-point 46 :  -0.3750-0.3750 0.0000  plane waves:    4342
 k-point 47 :  -0.2500-0.3750 0.0000  plane waves:    4334
 k-point 48 :  -0.1250-0.3750 0.0000  plane waves:    4312
 k-point 49 :   0.0000-0.2500 0.0000  plane waves:    4276
 k-point 50 :   0.1250-0.2500 0.0000  plane waves:    4271
 k-point 51 :   0.2500-0.2500 0.0000  plane waves:    4272
 k-point 52 :   0.3750-0.2500 0.0000  plane waves:    4283
 k-point 53 :   0.5000-0.2500 0.0000  plane waves:    4310
 k-point 54 :  -0.3750-0.2500 0.0000  plane waves:    4327
 k-point 55 :  -0.2500-0.2500 0.0000  plane waves:    4306
 k-point 56 :  -0.1250-0.2500 0.0000  plane waves:    4285
 k-point 57 :   0.0000-0.1250 0.0000  plane waves:    4245
 k-point 58 :   0.1250-0.1250 0.0000  plane waves:    4247
 k-point 59 :   0.2500-0.1250 0.0000  plane waves:    4262
 k-point 60 :   0.3750-0.1250 0.0000  plane waves:    4289
 k-point 61 :   0.5000-0.1250 0.0000  plane waves:    4303
 k-point 62 :  -0.3750-0.1250 0.0000  plane waves:    4308
 k-point 63 :  -0.2500-0.1250 0.0000  plane waves:    4283
 k-point 64 :  -0.1250-0.1250 0.0000  plane waves:    4256

 maximum and minimum number of plane-waves per node :      4342     4229

 maximum number of plane-waves:      4342
 maximum index in each direction: 
   IXMAX=    6   IYMAX=    6   IZMAX=   32
   IXMIN=   -6   IYMIN=   -6   IZMIN=  -32


 serial   3D FFT for wavefunctions
 parallel 3D FFT for charge:
    minimum data exchange during FFTs selected (reduces bandwidth)


 total amount of memory used by VASP MPI-rank0   235145. kBytes
=======================================================================

   base      :      30000. kBytes
   nonl-proj :     120325. kBytes
   fftplans  :      11208. kBytes
   grid      :      23989. kBytes
   one-center:         62. kBytes
   wavefun   :      49561. kBytes
 
     INWAV:  cpu time    0.0000: real time    0.0001
 Broyden mixing: mesh for mixing (old mesh)
   NGX = 13   NGY = 13   NGZ = 65
  (NGX  = 48   NGY  = 48   NGZ  =280)
  gives a total of  10985 points

 initial charge density was supplied:
 charge density of overlapping atoms calculated
 number of electron      34.0000000 magnetization 
 keeping initial charge density in first step


--------------------------------------------------------------------------------------------------------


 Maximum index for augmentation-charges         9992 (set IRDMAX)


--------------------------------------------------------------------------------------------------------


 First call to EWALD:  gamma=   0.287
 Maximum number of real-space cells 5x 5x 1
 Maximum number of reciprocal cells 2x 2x 8

    FEWALD:  cpu time    0.0037: real time    0.0037


--------------------------------------- Iteration      1(   1)  ---------------------------------------


    POTLOK:  cpu time    0.3522: real time    0.3528
    SETDIJ:  cpu time    0.0105: real time    0.0105
     EDDAV:  cpu time    4.4426: real time    4.4791
       DOS:  cpu time    0.0011: real time    0.0011
    --------------------------------------------
      LOOP:  cpu time    4.8066: real time    4.8436

 eigenvalue-minimisations  :  2816
 total energy-change (2. order) : 0.2443297E+03  (-0.1153257E+04)
 number of electron      34.0000000 magnetization 
 augmentation part       34.0000000 magnetization 

 DIPCOR: dipole corrections for dipol
 direction  3 min pos   209,
 dipolmoment           0.000000      0.000000     -0.000028 electrons x Angstroem
 Tr[quadrupol]       -81.606415

 energy correction for charged system         0.000000 eV
 dipol+quadrupol energy correction           -0.000000 eV
 added-field ion interaction          0.000465 eV  (added to PSCEN)


 Free energy of the ion-electron system (eV)
  ---------------------------------------------------
  alpha Z        PSCENC =        41.10242547
  Ewald energy   TEWEN  =      5782.23492232
  -Hartree energ DENC   =     -7967.98915328
  -exchange      EXHF   =         0.00000000
  -V(xc)+E(xc)   XCENC  =        36.92069122
  PAW double counting   =      2012.60260865    -1949.97488812
  entropy T*S    EENTRO =        -0.00839992
  eigenvalues    EBANDS =        53.05498960
  atomic energy  EATOM  =      2236.38650011
  Solvation  Ediel_sol  =         0.00000000
  ---------------------------------------------------
  free energy    TOTEN  =       244.32969604 eV

  energy without entropy =      244.33809596  energy(sigma->0) =      244.33389600


--------------------------------------------------------------------------------------------------------




--------------------------------------- Iteration      1(   2)  ---------------------------------------


     EDDAV:  cpu time    5.8088: real time    5.8110
       DOS:  cpu time    0.0009: real time    0.0009
    --------------------------------------------
      LOOP:  cpu time    5.8097: real time    5.8119

 eigenvalue-minimisations  :  4258
 total energy-change (2. order) :-0.2391506E+03  (-0.2278348E+03)
 number of electron      34.0000000 magnetization 
 augmentation part       34.0000000 magnetization 

 DIPCOR: dipole corrections for dipol
 direction  3 min pos   209,
 dipolmoment           0.000000      0.000000     -0.000028 electrons x Angstroem
 Tr[quadrupol]       -81.606415

 energy correction for charged system         0.000000 eV
 dipol+quadrupol energy correction           -0.000000 eV
 added-field ion interaction          0.000465 eV  (added to PSCEN)


 Free energy of the ion-electron system (eV)
  ---------------------------------------------------
  alpha Z        PSCENC =        41.10242547
  Ewald energy   TEWEN  =      5782.23492232
  -Hartree energ DENC   =     -7967.98915328
  -exchange      EXHF   =         0.00000000
  -V(xc)+E(xc)   XCENC  =        36.92069122
  PAW double counting   =      2012.60260865    -1949.97488812
  entropy T*S    EENTRO =        -0.00000353
  eigenvalues    EBANDS =      -186.10403046
  atomic energy  EATOM  =      2236.38650011
  Solvation  Ediel_sol  =         0.00000000
  ---------------------------------------------------
  free energy    TOTEN  =         5.17907237 eV

  energy without entropy =        5.17907590  energy(sigma->0) =        5.17907414


--------------------------------------------------------------------------------------------------------




--------------------------------------- Iteration      1(   3)  ---------------------------------------


     EDDAV:  cpu time    4.7557: real time    4.7566
       DOS:  cpu time    0.0007: real time    0.0007
    --------------------------------------------
      LOOP:  cpu time    4.7564: real time    4.7572

 eigenvalue-minimisations  :  3346
 total energy-change (2. order) :-0.2215712E+02  (-0.2181733E+02)
 number of electron      34.0000000 magnetization 
 augmentation part       34.0000000 magnetization 

 DIPCOR: dipole corrections for dipol
 direction  3 min pos   209,
 dipolmoment           0.000000      0.000000     -0.000028 electrons x Angstroem
 Tr[quadrupol]       -81.606415

 energy correction for charged system         0.000000 eV
 dipol+quadrupol energy correction           -0.000000 eV
 added-field ion interaction          0.000465 eV  (added to PSCEN)


 Free energy of the ion-electron system (eV)
  ---------------------------------------------------
  alpha Z        PSCENC =        41.10242547
  Ewald energy   TEWEN  =      5782.23492232
  -Hartree energ DENC   =     -7967.98915328
  -exchange      EXHF   =         0.00000000
  -V(xc)+E(xc)   XCENC  =        36.92069122
  PAW double counting   =      2012.60260865    -1949.97488812
  entropy T*S    EENTRO =        -0.00000000
  eigenvalues    EBANDS =      -208.26115195
  atomic energy  EATOM  =      2236.38650011
  Solvation  Ediel_sol  =         0.00000000
  ---------------------------------------------------
  free energy    TOTEN  =       -16.97804559 eV

  energy without entropy =      -16.97804559  energy(sigma->0) =      -16.97804559


--------------------------------------------------------------------------------------------------------




--------------------------------------- Iteration      1(   4)  ---------------------------------------


     EDDAV:  cpu time    5.0804: real time    5.0810
       DOS:  cpu time    0.0006: real time    0.0006
    --------------------------------------------
      LOOP:  cpu time    5.0810: real time    5.0816

 eigenvalue-minimisations  :  3542
 total energy-change (2. order) :-0.5033171E+00  (-0.5013785E+00)
 number of electron      34.0000000 magnetization 
 augmentation part       34.0000000 magnetization 

 DIPCOR: dipole corrections for dipol
 direction  3 min pos   209,
 dipolmoment           0.000000      0.000000     -0.000028 electrons x Angstroem
 Tr[quadrupol]       -81.606415

 energy correction for charged system         0.000000 eV
 dipol+quadrupol energy correction           -0.000000 eV
 added-field ion interaction          0.000465 eV  (added to PSCEN)


 Free energy of the ion-electron system (eV)
  ---------------------------------------------------
  alpha Z        PSCENC =        41.10242547
  Ewald energy   TEWEN  =      5782.23492232
  -Hartree energ DENC   =     -7967.98915328
  -exchange      EXHF   =         0.00000000
  -V(xc)+E(xc)   XCENC  =        36.92069122
  PAW double counting   =      2012.60260865    -1949.97488812
  entropy T*S    EENTRO =        -0.00000000
  eigenvalues    EBANDS =      -208.76446907
  atomic energy  EATOM  =      2236.38650011
  Solvation  Ediel_sol  =         0.00000000
  ---------------------------------------------------
  free energy    TOTEN  =       -17.48136271 eV

  energy without entropy =      -17.48136271  energy(sigma->0) =      -17.48136271


--------------------------------------------------------------------------------------------------------




--------------------------------------- Iteration      1(   5)  ---------------------------------------


     EDDAV:  cpu time    4.9382: real time    4.9403
       DOS:  cpu time    0.0005: real time    0.0005
    CHARGE:  cpu time    0.3705: real time    0.3706
    MIXING:  cpu time    0.0113: real time    0.0113
    --------------------------------------------
      LOOP:  cpu time    5.3206: real time    5.3227

 eigenvalue-minimisations  :  3442
 total energy-change (2. order) :-0.1295472E-01  (-0.1295162E-01)
 number of electron      33.9999998 magnetization 
 augmentation part        3.4185424 magnetization 

 DIPCOR: dipole corrections for dipol
 direction  3 min pos   209,
 dipolmoment           0.000000      0.000000     -0.000028 electrons x Angstroem
 Tr[quadrupol]       -81.606415

 energy correction for charged system         0.000000 eV
 dipol+quadrupol energy correction           -0.000000 eV
 added-field ion interaction          0.000465 eV  (added to PSCEN)


 Broyden mixing:
  rms(total) = 0.15045E+01    rms(broyden)= 0.15045E+01
  rms(prec ) = 0.15308E+01
  weight for this iteration     100.00

 Free energy of the ion-electron system (eV)
  ---------------------------------------------------
  alpha Z        PSCENC =        41.10242547
  Ewald energy   TEWEN  =      5782.23492232
  -Hartree energ DENC   =     -7967.98915328
  -exchange      EXHF   =         0.00000000
  -V(xc)+E(xc)   XCENC  =        36.92069122
  PAW double counting   =      2012.60260865    -1949.97488812
  entropy T*S    EENTRO =        -0.00000000
  eigenvalues    EBANDS =      -208.77742379
  atomic energy  EATOM  =      2236.38650011
  Solvation  Ediel_sol  =         0.00000000
  ---------------------------------------------------
  free energy    TOTEN  =       -17.49431743 eV

  energy without entropy =      -17.49431743  energy(sigma->0) =      -17.49431743


--------------------------------------------------------------------------------------------------------




--------------------------------------- Iteration      1(   6)  ---------------------------------------


    POTLOK:  cpu time    0.3240: real time    0.3241
    SETDIJ:  cpu time    0.0112: real time    0.0112
     EDDAV:  cpu time    4.8925: real time    4.8931
       DOS:  cpu time    0.0007: real time    0.0007
    CHARGE:  cpu time    0.3707: real time    0.3707
    MIXING:  cpu time    0.0110: real time    0.0110
    --------------------------------------------
      LOOP:  cpu time    5.6100: real time    5.6108

 eigenvalue-minimisations  :  3516
 total energy-change (2. order) : 0.8801722E+00  (-0.2517786E+00)
 number of electron      33.9999998 magnetization 
 augmentation part        3.8615494 magnetization 

 DIPCOR: dipole corrections for dipol
 direction  3 min pos   211,
 dipolmoment           0.000000      0.000000     -0.035919 electrons x Angstroem
 Tr[quadrupol]       -81.571067

 energy correction for charged system         0.000000 eV
 dipol+quadrupol energy correction           -0.000494 eV
 added-field ion interaction          0.462232 eV  (added to PSCEN)


 Broyden mixing:
  rms(total) = 0.84127E+00    rms(broyden)= 0.84127E+00
  rms(prec ) = 0.84620E+00
  weight for this iteration     100.00

 eigenvalues of (default mixing * dielectric matrix)
  average eigenvalue GAMMA=   1.7884
  1.7884

 Free energy of the ion-electron system (eV)
  ---------------------------------------------------
  alpha Z        PSCENC =        41.56369748
  Ewald energy   TEWEN  =      5782.23492232
  -Hartree energ DENC   =     -7951.76019859
  -exchange      EXHF   =         0.00000000
  -V(xc)+E(xc)   XCENC  =        36.60837478
  PAW double counting   =      2262.73040772    -2203.10620941
  entropy T*S    EENTRO =        -0.00000000
  eigenvalues    EBANDS =      -221.27163967
  atomic energy  EATOM  =      2236.38650011
  Solvation  Ediel_sol  =         0.00000000
  ---------------------------------------------------
  free energy    TOTEN  =       -16.61414525 eV

  energy without entropy =      -16.61414525  energy(sigma->0) =      -16.61414525


--------------------------------------------------------------------------------------------------------




--------------------------------------- Iteration      1(   7)  ---------------------------------------


    POTLOK:  cpu time    0.3118: real time    0.3118
    SETDIJ:  cpu time    0.0158: real time    0.0158
     EDDAV:  cpu time    5.2063: real time    5.2314
       DOS:  cpu time    0.0008: real time    0.0022
    CHARGE:  cpu time    0.4114: real time    0.4116
    MIXING:  cpu time    0.0115: real time    0.0115
    --------------------------------------------
      LOOP:  cpu time    5.9575: real time    5.9843

 eigenvalue-minimisations  :  3368
 total energy-change (2. order) : 0.3961053E-02  (-0.5538207E-01)
 number of electron      33.9999998 magnetization 
 augmentation part        3.8217290 magnetization 

 DIPCOR: dipole corrections for dipol
 direction  3 min pos   224,
 dipolmoment           0.000000      0.000000     -0.014714 electrons x Angstroem
 Tr[quadrupol]       -81.763505

 energy correction for charged system         0.000000 eV
 dipol+quadrupol energy correction           -0.000083 eV
 added-field ion interaction         -0.166599 eV  (added to PSCEN)


 Broyden mixing:
  rms(total) = 0.31788E+00    rms(broyden)= 0.31788E+00
  rms(prec ) = 0.33712E+00
  weight for this iteration     100.00

 eigenvalues of (default mixing * dielectric matrix)
  average eigenvalue GAMMA=   1.5521
  0.8310  2.2732

 Free energy of the ion-electron system (eV)
  ---------------------------------------------------
  alpha Z        PSCENC =        40.93527768
  Ewald energy   TEWEN  =      5782.23492232
  -Hartree energ DENC   =     -7956.45723839
  -exchange      EXHF   =         0.00000000
  -V(xc)+E(xc)   XCENC  =        36.52463684
  PAW double counting   =      2549.54798442    -2491.83641721
  entropy T*S    EENTRO =        -0.00000000
  eigenvalues    EBANDS =      -213.94584997
  atomic energy  EATOM  =      2236.38650011
  Solvation  Ediel_sol  =         0.00000000
  ---------------------------------------------------
  free energy    TOTEN  =       -16.61018419 eV

  energy without entropy =      -16.61018419  energy(sigma->0) =      -16.61018419


--------------------------------------------------------------------------------------------------------




--------------------------------------- Iteration      1(   8)  ---------------------------------------


    POTLOK:  cpu time    0.3282: real time    0.3283
    SETDIJ:  cpu time    0.0117: real time    0.0117
     EDDAV:  cpu time    5.1915: real time    5.1920
       DOS:  cpu time    0.0008: real time    0.0008
    CHARGE:  cpu time    0.4690: real time    0.4690
    MIXING:  cpu time    0.0110: real time    0.0213
    --------------------------------------------
      LOOP:  cpu time    6.0122: real time    6.0251

 eigenvalue-minimisations  :  3494
 total energy-change (2. order) :-0.5910968E-01  (-0.4405303E-01)
 number of electron      33.9999998 magnetization 
 augmentation part        3.8331092 magnetization 

 DIPCOR: dipole corrections for dipol
 direction  3 min pos   226,
 dipolmoment           0.000000      0.000000     -0.074484 electrons x Angstroem
 Tr[quadrupol]       -81.709952

 energy correction for charged system         0.000000 eV
 dipol+quadrupol energy correction           -0.002126 eV
 added-field ion interaction         -1.120574 eV  (added to PSCEN)


 Broyden mixing:
  rms(total) = 0.25697E+00    rms(broyden)= 0.25697E+00
  rms(prec ) = 0.30973E+00
  weight for this iteration     100.00

 eigenvalues of (default mixing * dielectric matrix)
  average eigenvalue GAMMA=   1.2581
  2.4222  0.9466  0.4054

 Free energy of the ion-electron system (eV)
  ---------------------------------------------------
  alpha Z        PSCENC =        39.97926021
  Ewald energy   TEWEN  =      5782.23492232
  -Hartree energ DENC   =     -7955.68537908
  -exchange      EXHF   =         0.00000000
  -V(xc)+E(xc)   XCENC  =        36.53646614
  PAW double counting   =      2667.97973668    -2610.97412091
  entropy T*S    EENTRO =        -0.00000000
  eigenvalues    EBANDS =      -213.12667935
  atomic energy  EATOM  =      2236.38650011
  Solvation  Ediel_sol  =         0.00000000
  ---------------------------------------------------
  free energy    TOTEN  =       -16.66929387 eV

  energy without entropy =      -16.66929387  energy(sigma->0) =      -16.66929387


--------------------------------------------------------------------------------------------------------




--------------------------------------- Iteration      1(   9)  ---------------------------------------


    POTLOK:  cpu time    0.3203: real time    0.3443
    SETDIJ:  cpu time    0.0047: real time    0.0071
     EDDAV:  cpu time    5.1984: real time    5.2363
       DOS:  cpu time    0.0008: real time    0.0021
    CHARGE:  cpu time    0.3934: real time    0.3934
    MIXING:  cpu time    0.0116: real time    0.0116
    --------------------------------------------
      LOOP:  cpu time    5.9290: real time    5.9928

 eigenvalue-minimisations  :  3464
 total energy-change (2. order) : 0.1073898E+00  (-0.1711619E-01)
 number of electron      33.9999998 magnetization 
 augmentation part        3.8602051 magnetization 

 DIPCOR: dipole corrections for dipol
 direction  3 min pos   214,
 dipolmoment           0.000000      0.000000     -0.026335 electrons x Angstroem
 Tr[quadrupol]       -81.785490

 energy correction for charged system         0.000000 eV
 dipol+quadrupol energy correction           -0.000266 eV
 added-field ion interaction          0.191881 eV  (added to PSCEN)


 Broyden mixing:
  rms(total) = 0.43057E-01    rms(broyden)= 0.43049E-01
  rms(prec ) = 0.47379E-01
  weight for this iteration     100.00

 eigenvalues of (default mixing * dielectric matrix)
  average eigenvalue GAMMA=   1.2740
  2.4949  1.3395  0.8729  0.3886

 Free energy of the ion-electron system (eV)
  ---------------------------------------------------
  alpha Z        PSCENC =        41.29357547
  Ewald energy   TEWEN  =      5782.23492232
  -Hartree energ DENC   =     -7954.73329888
  -exchange      EXHF   =         0.00000000
  -V(xc)+E(xc)   XCENC  =        36.54484410
  PAW double counting   =      2694.48516433    -2637.61413896
  entropy T*S    EENTRO =        -0.00000000
  eigenvalues    EBANDS =      -215.15947259
  atomic energy  EATOM  =      2236.38650011
  Solvation  Ediel_sol  =         0.00000000
  ---------------------------------------------------
  free energy    TOTEN  =       -16.56190409 eV

  energy without entropy =      -16.56190409  energy(sigma->0) =      -16.56190409


--------------------------------------------------------------------------------------------------------




--------------------------------------- Iteration      1(  10)  ---------------------------------------


    POTLOK:  cpu time    0.3281: real time    0.3282
    SETDIJ:  cpu time    0.0119: real time    0.0119
     EDDAV:  cpu time    4.8422: real time    4.8426
       DOS:  cpu time    0.0007: real time    0.0007
    CHARGE:  cpu time    0.4508: real time    0.4509
    MIXING:  cpu time    0.0129: real time    0.0142
    --------------------------------------------
      LOOP:  cpu time    5.6468: real time    5.6542

 eigenvalue-minimisations  :  3212
 total energy-change (2. order) : 0.2226267E-02  (-0.2348653E-02)
 number of electron      33.9999998 magnetization 
 augmentation part        3.8581661 magnetization 

 DIPCOR: dipole corrections for dipol
 direction  3 min pos   208,
 dipolmoment           0.000000      0.000000     -0.034241 electrons x Angstroem
 Tr[quadrupol]       -81.815841

 energy correction for charged system         0.000000 eV
 dipol+quadrupol energy correction           -0.000449 eV
 added-field ion interaction          0.631798 eV  (added to PSCEN)


 Broyden mixing:
  rms(total) = 0.18131E-01    rms(broyden)= 0.18131E-01
  rms(prec ) = 0.20792E-01
  weight for this iteration     100.00

 eigenvalues of (default mixing * dielectric matrix)
  average eigenvalue GAMMA=   1.2210
  2.4709  1.4839  0.8873  0.8873  0.3756

 Free energy of the ion-electron system (eV)
  ---------------------------------------------------
  alpha Z        PSCENC =        41.73330895
  Ewald energy   TEWEN  =      5782.23492232
  -Hartree energ DENC   =     -7955.03794985
  -exchange      EXHF   =         0.00000000
  -V(xc)+E(xc)   XCENC  =        36.58091722
  PAW double counting   =      2703.27338622    -2646.37399076
  entropy T*S    EENTRO =        -0.00000000
  eigenvalues    EBANDS =      -215.35677203
  atomic energy  EATOM  =      2236.38650011
  Solvation  Ediel_sol  =         0.00000000
  ---------------------------------------------------
  free energy    TOTEN  =       -16.55967782 eV

  energy without entropy =      -16.55967782  energy(sigma->0) =      -16.55967782


--------------------------------------------------------------------------------------------------------




--------------------------------------- Iteration      1(  11)  ---------------------------------------


    POTLOK:  cpu time    0.3175: real time    0.3352
    SETDIJ:  cpu time    0.0160: real time    0.0160
     EDDAV:  cpu time    5.1672: real time    5.1680
       DOS:  cpu time    0.0007: real time    0.0007
    CHARGE:  cpu time    0.3718: real time    0.3719
    MIXING:  cpu time    0.0123: real time    0.0123
    --------------------------------------------
      LOOP:  cpu time    5.8854: real time    5.8984

 eigenvalue-minimisations  :  3470
 total energy-change (2. order) : 0.1020368E-03  (-0.2941229E-03)
 number of electron      33.9999998 magnetization 
 augmentation part        3.8544564 magnetization 

 DIPCOR: dipole corrections for dipol
 direction  3 min pos   220,
 dipolmoment           0.000000      0.000000     -0.037886 electrons x Angstroem
 Tr[quadrupol]       -81.760810

 energy correction for charged system         0.000000 eV
 dipol+quadrupol energy correction           -0.000550 eV
 added-field ion interaction         -0.146964 eV  (added to PSCEN)


 Broyden mixing:
  rms(total) = 0.95897E-02    rms(broyden)= 0.95894E-02
  rms(prec ) = 0.10610E-01
  weight for this iteration     100.00

 eigenvalues of (default mixing * dielectric matrix)
  average eigenvalue GAMMA=   1.1773
  2.4392  1.7532  0.3774  0.9211  0.7865  0.7865

 Free energy of the ion-electron system (eV)
  ---------------------------------------------------
  alpha Z        PSCENC =        40.95444630
  Ewald energy   TEWEN  =      5782.23492232
  -Hartree energ DENC   =     -7955.41072150
  -exchange      EXHF   =         0.00000000
  -V(xc)+E(xc)   XCENC  =        36.59012076
  PAW double counting   =      2701.43757802    -2644.51718270
  entropy T*S    EENTRO =        -0.00000000
  eigenvalues    EBANDS =      -214.23523910
  atomic energy  EATOM  =      2236.38650011
  Solvation  Ediel_sol  =         0.00000000
  ---------------------------------------------------
  free energy    TOTEN  =       -16.55957578 eV

  energy without entropy =      -16.55957578  energy(sigma->0) =      -16.55957578


--------------------------------------------------------------------------------------------------------




--------------------------------------- Iteration      1(  12)  ---------------------------------------


    POTLOK:  cpu time    0.3409: real time    0.3411
    SETDIJ:  cpu time    0.0091: real time    0.0091
     EDDAV:  cpu time    6.3452: real time    6.3479
       DOS:  cpu time    0.0008: real time    0.0022
    CHARGE:  cpu time    0.5099: real time    0.5202
    MIXING:  cpu time    0.0150: real time    0.0221
    --------------------------------------------
      LOOP:  cpu time    7.2209: real time    7.2478

 eigenvalue-minimisations  :  4526
 total energy-change (2. order) : 0.3385928E-04  (-0.1745412E-04)
 number of electron      33.9999998 magnetization 
 augmentation part        3.8537014 magnetization 

 DIPCOR: dipole corrections for dipol
 direction  3 min pos   226,
 dipolmoment           0.000000      0.000000     -0.038807 electrons x Angstroem
 Tr[quadrupol]       -81.732795

 energy correction for charged system         0.000000 eV
 dipol+quadrupol energy correction           -0.000577 eV
 added-field ion interaction         -0.583835 eV  (added to PSCEN)


 Broyden mixing:
  rms(total) = 0.56434E-02    rms(broyden)= 0.56434E-02
  rms(prec ) = 0.62840E-02
  weight for this iteration     100.00

 eigenvalues of (default mixing * dielectric matrix)
  average eigenvalue GAMMA=   1.2862
  2.2687  2.2687  1.4932  0.3771  0.8954  0.8954  0.8052

 Free energy of the ion-electron system (eV)
  ---------------------------------------------------
  alpha Z        PSCENC =        40.51754773
  Ewald energy   TEWEN  =      5782.23492232
  -Hartree energ DENC   =     -7955.56294035
  -exchange      EXHF   =         0.00000000
  -V(xc)+E(xc)   XCENC  =        36.59301339
  PAW double counting   =      2699.73693646    -2642.80937740
  entropy T*S    EENTRO =        -0.00000000
  eigenvalues    EBANDS =      -213.65614420
  atomic energy  EATOM  =      2236.38650011
  Solvation  Ediel_sol  =         0.00000000
  ---------------------------------------------------
  free energy    TOTEN  =       -16.55954192 eV

  energy without entropy =      -16.55954192  energy(sigma->0) =      -16.55954192


--------------------------------------------------------------------------------------------------------




--------------------------------------- Iteration      1(  13)  ---------------------------------------


    POTLOK:  cpu time    0.3478: real time    0.3964
    SETDIJ:  cpu time    0.0110: real time    0.0271
     EDDAV:  cpu time    5.9320: real time    5.9800
       DOS:  cpu time    0.0008: real time    0.0022
    CHARGE:  cpu time    0.4234: real time    0.4234
    MIXING:  cpu time    0.0126: real time    0.0126
    --------------------------------------------
      LOOP:  cpu time    6.7275: real time    6.8366

 eigenvalue-minimisations  :  3928
 total energy-change (2. order) :-0.1579092E-04  (-0.1682942E-04)
 number of electron      33.9999998 magnetization 
 augmentation part        3.8544360 magnetization 

 DIPCOR: dipole corrections for dipol
 direction  3 min pos   229,
 dipolmoment           0.000000      0.000000     -0.037689 electrons x Angstroem
 Tr[quadrupol]       -81.727215

 energy correction for charged system         0.000000 eV
 dipol+quadrupol energy correction           -0.000544 eV
 added-field ion interaction         -0.777424 eV  (added to PSCEN)


 Broyden mixing:
  rms(total) = 0.20730E-02    rms(broyden)= 0.20728E-02
  rms(prec ) = 0.27852E-02
  weight for this iteration     100.00

 eigenvalues of (default mixing * dielectric matrix)
  average eigenvalue GAMMA=   1.3084
  2.5290  2.5290  0.3770  1.1769  1.1769  0.8995  0.8896  0.8896

 Free energy of the ion-electron system (eV)
  ---------------------------------------------------
  alpha Z        PSCENC =        40.32399160
  Ewald energy   TEWEN  =      5782.23492232
  -Hartree energ DENC   =     -7955.86059664
  -exchange      EXHF   =         0.00000000
  -V(xc)+E(xc)   XCENC  =        36.59664065
  PAW double counting   =      2695.74470458    -2638.81402293
  entropy T*S    EENTRO =        -0.00000000
  eigenvalues    EBANDS =      -213.17169741
  atomic energy  EATOM  =      2236.38650011
  Solvation  Ediel_sol  =         0.00000000
  ---------------------------------------------------
  free energy    TOTEN  =       -16.55955772 eV

  energy without entropy =      -16.55955772  energy(sigma->0) =      -16.55955772


--------------------------------------------------------------------------------------------------------




--------------------------------------- Iteration      1(  14)  ---------------------------------------


    POTLOK:  cpu time    0.3363: real time    0.3364
    SETDIJ:  cpu time    0.0089: real time    0.0089
     EDDAV:  cpu time    5.1166: real time    5.1171
       DOS:  cpu time    0.0008: real time    0.0021
    CHARGE:  cpu time    0.4074: real time    0.4074
    MIXING:  cpu time    0.0229: real time    0.0229
    --------------------------------------------
      LOOP:  cpu time    5.8928: real time    5.8947

 eigenvalue-minimisations  :  3380
 total energy-change (2. order) :-0.1488168E-04  (-0.7182420E-05)
 number of electron      33.9999998 magnetization 
 augmentation part        3.8541153 magnetization 

 DIPCOR: dipole corrections for dipol
 direction  3 min pos   231,
 dipolmoment           0.000000      0.000000     -0.038443 electrons x Angstroem
 Tr[quadrupol]       -81.719323

 energy correction for charged system         0.000000 eV
 dipol+quadrupol energy correction           -0.000566 eV
 added-field ion interaction         -0.936045 eV  (added to PSCEN)


 Broyden mixing:
  rms(total) = 0.20323E-02    rms(broyden)= 0.20323E-02
  rms(prec ) = 0.21624E-02
  weight for this iteration     100.00

 eigenvalues of (default mixing * dielectric matrix)
  average eigenvalue GAMMA=   1.2697
  2.5462  2.5462  1.3598  0.9559  0.9559  1.0667  0.9959  0.3770  0.6238

 Free energy of the ion-electron system (eV)
  ---------------------------------------------------
  alpha Z        PSCENC =        40.16534896
  Ewald energy   TEWEN  =      5782.23492232
  -Hartree energ DENC   =     -7956.01541240
  -exchange      EXHF   =         0.00000000
  -V(xc)+E(xc)   XCENC  =        36.59912823
  PAW double counting   =      2695.33333239    -2638.40173064
  entropy T*S    EENTRO =        -0.00000000
  eigenvalues    EBANDS =      -212.86166156
  atomic energy  EATOM  =      2236.38650011
  Solvation  Ediel_sol  =         0.00000000
  ---------------------------------------------------
  free energy    TOTEN  =       -16.55957260 eV

  energy without entropy =      -16.55957260  energy(sigma->0) =      -16.55957260


--------------------------------------------------------------------------------------------------------




--------------------------------------- Iteration      1(  15)  ---------------------------------------


    POTLOK:  cpu time    0.3087: real time    0.3088
    SETDIJ:  cpu time    0.0071: real time    0.0071
     EDDAV:  cpu time    4.9318: real time    4.9320
       DOS:  cpu time    0.0007: real time    0.0007
    CHARGE:  cpu time    0.3849: real time    0.3849
    MIXING:  cpu time    0.0135: real time    0.0135
    --------------------------------------------
      LOOP:  cpu time    5.6468: real time    5.6471

 eigenvalue-minimisations  :  3212
 total energy-change (2. order) :-0.1338275E-04  (-0.8524244E-06)
 number of electron      33.9999998 magnetization 
 augmentation part        3.8542364 magnetization 

 DIPCOR: dipole corrections for dipol
 direction  3 min pos   232,
 dipolmoment           0.000000      0.000000     -0.038314 electrons x Angstroem
 Tr[quadrupol]       -81.715760

 energy correction for charged system         0.000000 eV
 dipol+quadrupol energy correction           -0.000562 eV
 added-field ion interaction         -1.004195 eV  (added to PSCEN)


 Broyden mixing:
  rms(total) = 0.11341E-02    rms(broyden)= 0.11341E-02
  rms(prec ) = 0.12781E-02
  weight for this iteration     100.00

 eigenvalues of (default mixing * dielectric matrix)
  average eigenvalue GAMMA=   1.3130
  2.5994  2.1152  2.1152  0.3770  1.2502  1.0479  1.0479  0.9194  0.9194  0.7385

 Free energy of the ion-electron system (eV)
  ---------------------------------------------------
  alpha Z        PSCENC =        40.09720310
  Ewald energy   TEWEN  =      5782.23492232
  -Hartree energ DENC   =     -7956.06990129
  -exchange      EXHF   =         0.00000000
  -V(xc)+E(xc)   XCENC  =        36.59964852
  PAW double counting   =      2695.17991074    -2638.24825829
  entropy T*S    EENTRO =        -0.00000000
  eigenvalues    EBANDS =      -212.73961119
  atomic energy  EATOM  =      2236.38650011
  Solvation  Ediel_sol  =         0.00000000
  ---------------------------------------------------
  free energy    TOTEN  =       -16.55958598 eV

  energy without entropy =      -16.55958598  energy(sigma->0) =      -16.55958598


--------------------------------------------------------------------------------------------------------




--------------------------------------- Iteration      1(  16)  ---------------------------------------


    POTLOK:  cpu time    0.3290: real time    0.3290
    SETDIJ:  cpu time    0.0092: real time    0.0092
     EDDAV:  cpu time    4.9854: real time    4.9858
       DOS:  cpu time    0.0007: real time    0.0007
    CHARGE:  cpu time    0.4128: real time    0.4128
    MIXING:  cpu time    0.0139: real time    0.0139
    --------------------------------------------
      LOOP:  cpu time    5.7509: real time    5.7515

 eigenvalue-minimisations  :  3278
 total energy-change (2. order) :-0.2369867E-04  (-0.2693101E-06)
 number of electron      33.9999998 magnetization 
 augmentation part        3.8542421 magnetization 

 DIPCOR: dipole corrections for dipol
 direction  3 min pos   232,
 dipolmoment           0.000000      0.000000     -0.037991 electrons x Angstroem
 Tr[quadrupol]       -81.718695

 energy correction for charged system         0.000000 eV
 dipol+quadrupol energy correction           -0.000553 eV
 added-field ion interaction         -0.995738 eV  (added to PSCEN)


 Broyden mixing:
  rms(total) = 0.37388E-03    rms(broyden)= 0.37387E-03
  rms(prec ) = 0.56532E-03
  weight for this iteration     100.00

 eigenvalues of (default mixing * dielectric matrix)
  average eigenvalue GAMMA=   1.3532
  2.6677  2.6677  1.7168  1.7168  0.3770  1.0424  1.0424  0.9906  0.9906  0.9811
  0.6923

 Free energy of the ion-electron system (eV)
  ---------------------------------------------------
  alpha Z        PSCENC =        40.10566944
  Ewald energy   TEWEN  =      5782.23492232
  -Hartree energ DENC   =     -7956.16787138
  -exchange      EXHF   =         0.00000000
  -V(xc)+E(xc)   XCENC  =        36.60026920
  PAW double counting   =      2695.33160412    -2638.40114544
  entropy T*S    EENTRO =        -0.00000000
  eigenvalues    EBANDS =      -212.64955805
  atomic energy  EATOM  =      2236.38650011
  Solvation  Ediel_sol  =         0.00000000
  ---------------------------------------------------
  free energy    TOTEN  =       -16.55960968 eV

  energy without entropy =      -16.55960968  energy(sigma->0) =      -16.55960968


--------------------------------------------------------------------------------------------------------




--------------------------------------- Iteration      1(  17)  ---------------------------------------


    POTLOK:  cpu time    0.3336: real time    0.3336
    SETDIJ:  cpu time    0.0094: real time    0.0094
     EDDAV:  cpu time    5.0362: real time    5.0388
       DOS:  cpu time    0.0007: real time    0.0020
    CHARGE:  cpu time    0.3870: real time    0.3872
    MIXING:  cpu time    0.0142: real time    0.0142
    --------------------------------------------
      LOOP:  cpu time    5.7811: real time    5.7853

 eigenvalue-minimisations  :  3422
 total energy-change (2. order) :-0.2202129E-04  (-0.1979700E-06)
 number of electron      33.9999998 magnetization 
 augmentation part        3.8542239 magnetization 

 DIPCOR: dipole corrections for dipol
 direction  3 min pos   232,
 dipolmoment           0.000000      0.000000     -0.037706 electrons x Angstroem
 Tr[quadrupol]       -81.721997

 energy correction for charged system         0.000000 eV
 dipol+quadrupol energy correction           -0.000545 eV
[...]
  band No.  band energies     occupation 
      1     -17.4540      2.00000
      2     -17.3508      2.00000
      3      -7.8271      2.00000
      4      -7.1581      2.00000
      5      -6.9040      2.00000
      6      -6.6815      2.00000
      7      -6.3629      2.00000
      8      -5.7226      2.00000
      9      -5.1836      2.00000
     10      -4.8735      2.00000
     11      -4.4768      2.00000
     12      -3.1857      2.00000
     13      -3.0992      2.00000
     14      -3.0615      2.00000
     15      -2.4280      2.00000
     16      -2.3791      2.00000
     17      -2.0695      2.00000
     18      -0.3575      0.00000
     19       0.1285      0.00000
     20       3.3985      0.00000
     21       3.8543      0.00000
     22       4.3914      0.00000

 k-point    52 :       0.3750   -0.2500    0.0000
  band No.  band energies     occupation 
      1     -17.3495      2.00000
      2     -17.2355      2.00000
      3      -7.7823      2.00000
      4      -7.2546      2.00000
      5      -6.7546      2.00000
      6      -6.5746      2.00000
      7      -6.4049      2.00000
      8      -5.8719      2.00000
      9      -5.2598      2.00000
     10      -5.0094      2.00000
     11      -4.1728      2.00000
     12      -3.7308      2.00000
     13      -3.1363      2.00000
     14      -2.8780      2.00000
     15      -2.6281      2.00000
     16      -2.5131      2.00000
     17      -2.2651      2.00000
     18      -0.4978      0.00000
     19       0.7608      0.00000
     20       3.1942      0.00000
     21       4.3866      0.00000
     22       4.8076      0.00000

 k-point    53 :       0.5000   -0.2500    0.0000
  band No.  band energies     occupation 
      1     -17.2520      2.00000
      2     -17.1089      2.00000
      3      -7.6229      2.00000
      4      -7.1455      2.00000
      5      -7.1207      2.00000
      6      -6.4058      2.00000
      7      -6.2985      2.00000
      8      -5.9303      2.00000
      9      -5.4177      2.00000
     10      -5.2243      2.00000
     11      -3.9064      2.00000
     12      -3.5848      2.00000
     13      -3.3813      2.00000
     14      -3.1835      2.00000
     15      -3.0963      2.00000
     16      -2.5256      2.00000
     17      -2.1638      2.00000
     18      -0.4562      0.00000
     19       1.1596      0.00000
     20       2.8610      0.00000
     21       4.4611      0.00000
     22       5.4649      0.00000

 k-point    54 :      -0.3750   -0.2500    0.0000
  band No.  band energies     occupation 
      1     -17.2132      2.00000
      2     -17.0551      2.00000
      3      -7.3628      2.00000
      4      -7.3463      2.00000
      5      -6.9562      2.00000
      6      -6.6998      2.00000
      7      -6.4913      2.00000
      8      -5.7230      2.00000
      9      -5.4209      2.00000
     10      -4.8699      2.00000
     11      -4.3522      2.00000
     12      -3.8328      2.00000
     13      -3.5193      2.00000
     14      -3.1756      2.00000
     15      -2.8202      2.00000
     16      -2.5027      2.00000
     17      -2.2331      2.00000
     18      -0.3357      0.00000
     19       1.3341      0.00000
     20       2.2607      0.00000
     21       5.0175      0.00000
     22       5.4255      0.00000

 k-point    55 :      -0.2500   -0.2500    0.0000
  band No.  band energies     occupation 
      1     -17.2538      2.00000
      2     -17.1114      2.00000
      3      -7.6171      2.00000
      4      -7.1398      2.00000
      5      -7.1227      2.00000
      6      -6.4030      2.00000
      7      -6.2947      2.00000
      8      -5.9319      2.00000
      9      -5.4209      2.00000
     10      -5.2264      2.00000
     11      -3.9135      2.00000
     12      -3.5819      2.00000
     13      -3.3930      2.00000
     14      -3.1932      2.00000
     15      -3.0939      2.00000
     16      -2.5209      2.00000
     17      -2.1646      2.00000
     18      -0.4548      0.00000
     19       1.1535      0.00000
     20       2.8639      0.00000
     21       4.4711      0.00000
     22       5.4753      0.00000

 k-point    56 :      -0.1250   -0.2500    0.0000
  band No.  band energies     occupation 
      1     -17.3520      2.00000
      2     -17.2388      2.00000
      3      -7.7833      2.00000
      4      -7.2570      2.00000
      5      -6.7476      2.00000
      6      -6.5680      2.00000
      7      -6.4028      2.00000
      8      -5.8652      2.00000
      9      -5.2598      2.00000
     10      -5.0161      2.00000
     11      -4.1724      2.00000
     12      -3.7367      2.00000
     13      -3.1408      2.00000
     14      -2.8839      2.00000
     15      -2.6300      2.00000
     16      -2.5137      2.00000
     17      -2.2655      2.00000
     18      -0.4960      0.00000
     19       0.7488      0.00000
     20       3.1954      0.00000
     21       4.3846      0.00000
     22       4.8077      0.00000

 k-point    57 :       0.0000   -0.1250    0.0000
  band No.  band energies     occupation 
      1     -17.6190      2.00000
      2     -17.4906      2.00000
      3      -8.0136      2.00000
      4      -7.0809      2.00000
      5      -7.0005      2.00000
      6      -6.6793      2.00000
      7      -6.3121      2.00000
      8      -5.8963      2.00000
      9      -4.8809      2.00000
     10      -4.8004      2.00000
     11      -3.9993      2.00000
     12      -3.1126      2.00000
     13      -2.7766      2.00000
     14      -2.5431      2.00000
     15      -2.5333      2.00000
     16      -2.4742      2.00000
     17      -2.0983      2.00000
     18      -0.4492      0.00000
     19      -0.3683      0.00000
     20       2.6111      0.00000
     21       3.4379      0.00000
     22       4.0391      0.00000

 k-point    58 :       0.1250   -0.1250    0.0000
  band No.  band energies     occupation 
      1     -17.6184      2.00000
      2     -17.4901      2.00000
      3      -8.0121      2.00000
      4      -7.0782      2.00000
      5      -7.0047      2.00000
      6      -6.6793      2.00000
      7      -6.3024      2.00000
      8      -5.9103      2.00000
      9      -4.8696      2.00000
     10      -4.8158      2.00000
     11      -3.9936      2.00000
     12      -3.1093      2.00000
     13      -2.7830      2.00000
     14      -2.5406      2.00000
     15      -2.5372      2.00000
     16      -2.4720      2.00000
     17      -2.0924      2.00000
     18      -0.4499      0.00000
     19      -0.3697      0.00000
     20       2.6136      0.00000
     21       3.4394      0.00000
     22       4.0406      0.00000

 k-point    59 :       0.2500   -0.1250    0.0000
  band No.  band energies     occupation 
      1     -17.5022      2.00000
      2     -17.3962      2.00000
      3      -7.8446      2.00000
      4      -7.1501      2.00000
      5      -6.9691      2.00000
      6      -6.5064      2.00000
      7      -6.4060      2.00000
      8      -5.8783      2.00000
      9      -5.0596      2.00000
     10      -4.9766      2.00000
     11      -4.3761      2.00000
     12      -3.2117      2.00000
     13      -2.9554      2.00000
     14      -2.6469      2.00000
     15      -2.5464      2.00000
     16      -2.4563      2.00000
     17      -2.0959      2.00000
     18      -0.4533      0.00000
     19      -0.0190      0.00000
     20       3.4830      0.00000
     21       3.8550      0.00000
     22       4.3688      0.00000

 k-point    60 :       0.3750   -0.1250    0.0000
  band No.  band energies     occupation 
      1     -17.3518      2.00000
      2     -17.2386      2.00000
      3      -7.7898      2.00000
      4      -7.2588      2.00000
      5      -6.7507      2.00000
      6      -6.5694      2.00000
      7      -6.3998      2.00000
      8      -5.8586      2.00000
      9      -5.2506      2.00000
     10      -5.0202      2.00000
     11      -4.1736      2.00000
     12      -3.7354      2.00000
     13      -3.1282      2.00000
     14      -2.8906      2.00000
     15      -2.6265      2.00000
     16      -2.5161      2.00000
     17      -2.2665      2.00000
     18      -0.5022      0.00000
     19       0.7539      0.00000
     20       3.1835      0.00000
     21       4.3915      0.00000
     22       4.8110      0.00000

 k-point    61 :       0.5000   -0.1250    0.0000
  band No.  band energies     occupation 
      1     -17.2528      2.00000
      2     -17.1115      2.00000
      3      -7.7969      2.00000
      4      -7.4724      2.00000
      5      -6.7097      2.00000
      6      -6.5120      2.00000
      7      -6.3278      2.00000
      8      -5.9680      2.00000
      9      -5.1635      2.00000
     10      -4.7546      2.00000
     11      -3.9698      2.00000
     12      -3.5349      2.00000
     13      -3.4020      2.00000
     14      -3.1906      2.00000
     15      -3.1136      2.00000
     16      -2.6301      2.00000
     17      -2.4507      2.00000
     18      -0.4238      0.00000
     19       1.0994      0.00000
     20       2.4910      0.00000
     21       4.8281      0.00000
     22       5.0918      0.00000

 k-point    62 :      -0.3750   -0.1250    0.0000
  band No.  band energies     occupation 
      1     -17.2534      2.00000
      2     -17.1122      2.00000
      3      -7.7942      2.00000
      4      -7.4704      2.00000
      5      -6.7116      2.00000
      6      -6.5110      2.00000
      7      -6.3258      2.00000
      8      -5.9693      2.00000
      9      -5.1644      2.00000
     10      -4.7562      2.00000
     11      -3.9673      2.00000
     12      -3.5410      2.00000
     13      -3.4088      2.00000
     14      -3.1956      2.00000
     15      -3.1093      2.00000
     16      -2.6253      2.00000
     17      -2.4513      2.00000
     18      -0.4221      0.00000
     19       1.0989      0.00000
     20       2.4908      0.00000
     21       4.8349      0.00000
     22       5.0935      0.00000

 k-point    63 :      -0.2500   -0.1250    0.0000
  band No.  band energies     occupation 
      1     -17.3531      2.00000
      2     -17.2403      2.00000
      3      -7.7869      2.00000
      4      -7.2589      2.00000
      5      -6.7457      2.00000
      6      -6.5655      2.00000
      7      -6.4004      2.00000
      8      -5.8587      2.00000
      9      -5.2554      2.00000
     10      -5.0215      2.00000
     11      -4.1727      2.00000
     12      -3.7389      2.00000
     13      -3.1368      2.00000
     14      -2.8901      2.00000
     15      -2.6292      2.00000
     16      -2.5152      2.00000
     17      -2.2663      2.00000
     18      -0.4981      0.00000
     19       0.7454      0.00000
     20       3.1900      0.00000
     21       4.3869      0.00000
     22       4.8092      0.00000

 k-point    64 :      -0.1250   -0.1250    0.0000
  band No.  band energies     occupation 
      1     -17.5035      2.00000
      2     -17.3976      2.00000
      3      -7.8469      2.00000
      4      -7.1514      2.00000
      5      -6.9670      2.00000
      6      -6.5040      2.00000
      7      -6.4042      2.00000
      8      -5.8722      2.00000
      9      -5.0653      2.00000
     10      -4.9668      2.00000
     11      -4.3845      2.00000
     12      -3.2093      2.00000
     13      -2.9582      2.00000
     14      -2.6475      2.00000
     15      -2.5477      2.00000
     16      -2.4584      2.00000
     17      -2.0966      2.00000
     18      -0.4518      0.00000
     19      -0.0257      0.00000
     20       3.4812      0.00000
     21       3.8531      0.00000
     22       4.3659      0.00000


--------------------------------------------------------------------------------------------------------


 soft charge-density along one line, spin component           1
         0         1         2         3         4         5         6         7         8         9
 total charge-density along one line
 
 pseudopotential strength for first ion, spin component:           1
 49.311  51.752   0.000   0.034  -0.000   0.000   0.043  -0.000
 51.752  54.317   0.000   0.036  -0.000   0.000   0.045  -0.000
  0.000   0.000   9.303   0.000   0.000  11.531   0.000   0.000
  0.034   0.036   0.000   9.301  -0.000   0.000  11.529  -0.000
 -0.000  -0.000   0.000  -0.000   9.303   0.000  -0.000  11.531
  0.000   0.000  11.531   0.000   0.000  14.309   0.000   0.000
  0.043   0.045   0.000  11.529  -0.000   0.000  14.306  -0.000
 -0.000  -0.000   0.000  -0.000  11.531   0.000  -0.000  14.309
 total augmentation occupancy for first ion, spin component:           1
  8.653  -6.613  -0.001  -2.882   0.019   0.000   1.242  -0.006
 -6.613   6.528   0.001   2.705  -0.018  -0.000  -1.229   0.007
 -0.001   0.001   3.421   0.000   0.001  -0.976  -0.000  -0.001
 -2.882   2.705   0.000   3.146  -0.006  -0.000  -0.810   0.003
  0.019  -0.018   0.001  -0.006   3.421  -0.001   0.003  -0.976
  0.000  -0.000  -0.976  -0.000  -0.001   0.441   0.000  -0.000
  1.242  -1.229  -0.000  -0.810   0.003   0.000   0.400  -0.001
 -0.006   0.007  -0.001   0.003  -0.976  -0.000  -0.001   0.441


------------------------ aborting loop because EDIFF is reached ----------------------------------------


    CHARGE:  cpu time    0.4121: real time    0.4122
    FORLOC:  cpu time    0.0296: real time    0.0296
    FORNL :  cpu time    0.5370: real time    0.5382
    STRESS:  cpu time    3.4241: real time    3.4243
    FORCOR:  cpu time    0.3079: real time    0.3180
    FORHAR:  cpu time    0.0586: real time    0.0599
    MIXING:  cpu time    0.0092: real time    0.0092
    OFIELD:  cpu time    0.0001: real time    0.0009

 ---------------------------------------------------------------------------------------------

         DFTD3 V3.0 Rev 1        
 Edisp (eV)   -1.21602

 E6    (eV) :    -0.3475
 E8    (eV) :    -0.8685
 % E8        : 71.42
    FORVDW:  cpu time    0.0168: real time    0.0168

  FORCE on cell =-STRESS in cart. coord.  units (eV):
  Direction    XX          YY          ZZ          XY          YZ          ZX
  --------------------------------------------------------------------------------------
  Alpha Z    41.10196    41.10196    41.10196
  Ewald    7366.70872  7366.71107 -8882.02639     0.48064     0.06794    -1.93001
  Hartree  7839.81296  7839.81733 -7654.87096     0.07907     0.02472    -0.72128
  E(xc)    -140.88059  -140.88063  -141.46546     0.00933     0.00018    -0.00481
  Local  -15831.30339-15831.31178 15901.91346    -0.35304    -0.08767     2.51214
  n-local   141.62691   141.62660   143.70706    -0.06887     0.00067    -0.01527
  augment    78.80503    78.80523    80.05705    -0.03472    -0.00051     0.01299
  Kinetic   504.20368   504.20582   511.66372    -0.23504    -0.00529     0.13835
  Fock        0.00000     0.00000     0.00000     0.00000     0.00000     0.00000
  vdW        -0.85477    -0.85457    -0.14019    -0.01281    -0.00013     0.00463
  -------------------------------------------------------------------------------------
  Total      -0.77949    -0.77897    -0.05974    -0.13542    -0.00010    -0.00326
  in kB      -5.28843    -5.28485    -0.40531    -0.91878    -0.00065    -0.02212
  external pressure =       -3.66 kB  Pullay stress =        0.00 kB


 VOLUME and BASIS-vectors are now :
 -----------------------------------------------------------------------------
  energy-cutoff  :      400.00
  volume of cell :      236.15
      direct lattice vectors                 reciprocal lattice vectors
     3.692083289 -0.036629028  0.000000000     0.272358847  0.152107424  0.000000000
    -1.796041249  3.215935895  0.000000000     0.003102126  0.312683953  0.000000000
     0.000000000  0.000000000 20.000000000     0.000000000  0.000000000  0.050000000

  length of vectors
     3.692264982  3.683477684 20.000000000     0.311955141  0.312699340  0.050000000


 FORCES acting on ions
    electron-ion (+dipol)            ewald-force                    non-local-force                 convergence-correction
 -----------------------------------------------------------------------------------------------
   -.564E+00 0.187E-01 0.962E+03   0.595E+00 -.196E-01 -.967E+03   -.277E-01 0.757E-03 0.504E+01   -.124E-02 -.125E-04 0.214E-03
   0.310E+00 -.137E-01 -.972E+03   -.314E+00 0.140E-01 0.974E+03   0.260E-02 -.167E-03 -.262E+01   0.424E-03 -.111E-05 -.105E-02
   0.198E+00 -.260E-02 -.551E+03   -.158E+00 0.860E-03 0.545E+03   -.409E-01 0.931E-03 0.627E+01   -.574E-03 0.418E-03 -.473E-02
   0.107E+00 -.355E-02 0.559E+03   -.123E+00 0.478E-02 -.553E+03   0.163E-01 -.433E-03 -.618E+01   0.435E-03 -.423E-03 -.353E-02
 -----------------------------------------------------------------------------------------------
   0.506E-01 -.111E-02 -.250E+01   0.152E-13 0.126E-13 0.000E+00   -.497E-01 0.109E-02 0.251E+01   -.950E-03 -.181E-04 -.909E-02
 
 
 POSITION                                       TOTAL-FORCE (eV/Angst)
 -----------------------------------------------------------------------------------
     -0.89209      1.60762      3.42086         0.000908     -0.000096     -0.000358
     -0.90493      1.60809      7.66104        -0.000628      0.000106      0.000711
      0.93009      0.52373      6.19438        -0.000521     -0.000401      0.000190
      0.96770      2.65530      4.72839         0.000241      0.000391     -0.000543
 -----------------------------------------------------------------------------------
    total drift:                                0.000002     -0.000039     -0.000290


--------------------------------------------------------------------------------------------------------



  FREE ENERGIE OF THE ION-ELECTRON SYSTEM (eV)
  ---------------------------------------------------
  free  energy   TOTEN  =       -17.77987430 eV

  energy  without entropy=      -17.77987430  energy(sigma->0) =      -17.77987430
 
 d Force = 0.2152480E-06[ 0.124E-06, 0.307E-06]  d Energy = 0.2026259E-06 0.126E-07
 d Force = 0.6199602E-01[ 0.620E-01, 0.620E-01]  d Ewald  = 0.6199602E-01 0.148E-09


--------------------------------------------------------------------------------------------------------


    POTLOK:  cpu time    0.3098: real time    0.3098


--------------------------------------------------------------------------------------------------------


 Quasi-Newton relaxation of ions (Broydens 2nd method)
  g(Force)  = 0.137E-06   g(Stress)= 0.000E+00

 retain information from N=  2 steps
 eigenvalues of (default step * inverse Hessian matrix)
  average eigenvalue of G=   1.7435
 eigenvalue spectrum of G is  2.5523  0.9348


--------------------------------------------------------------------------------------------------------


  
 reached required accuracy - stopping structural energy minimisation
 writing wavefunctions
     LOOP+:  cpu time   21.5206: real time   21.6167
    4ORBIT:  cpu time    0.0000: real time    0.0000

 total amount of memory used by VASP MPI-rank0   235145. kBytes
=======================================================================

   base      :      30000. kBytes
   nonl-proj :     120325. kBytes
   fftplans  :      11208. kBytes
   grid      :      23989. kBytes
   one-center:         62. kBytes
   wavefun   :      49561. kBytes
 
  
  
 General timing and accounting informations for this job:
 ========================================================
  
                  Total CPU time used (sec):      447.336
                            User time (sec):      441.915
                          System time (sec):        5.421
                         Elapsed time (sec):      448.628
  
                   Maximum memory used (kb):      374052.
                   Average memory used (kb):           0.
  
                          Minor page faults:       278174
                          Major page faults:            0
                 Voluntary context switches:           64
