 running on    8 total cores
 distrk:  each k-point on    2 cores,    4 groups
 distr:  one band on    1 cores,    2 groups
 using from now: INCAR     
 vasp.5.4.4.16052018 (build Dec 07 2020 11:33:42) complex                       
  
 POSCAR found type information on POSCAR  Cl Br Pt
 POSCAR found :  3 types and       4 ions
 scaLAPACK will be used

 ----------------------------------------------------------------------------- 
|                                                                             |
|           W    W    AA    RRRRR   N    N  II  N    N   GGGG   !!!           |
|           W    W   A  A   R    R  NN   N  II  NN   N  G    G  !!!           |
|           W    W  A    A  R    R  N N  N  II  N N  N  G       !!!           |
|           W WW W  AAAAAA  RRRRR   N  N N  II  N  N N  G  GGG   !            |
|           WW  WW  A    A  R   R   N   NN  II  N   NN  G    G                |
|           W    W  A    A  R    R  N    N  II  N    N   GGGG   !!!           |
|                                                                             |
|      For optimal performance we recommend to set                            |
|        NCORE= 4 - approx SQRT( number of cores)                             |
|      NCORE specifies how many cores store one orbital (NPAR=cpu/NCORE).     |
|      This setting can  greatly improve the performance of VASP for DFT.     |
|      The default,   NCORE=1            might be grossly inefficient         |
|      on modern multi-core architectures or massively parallel machines.     |
|      Do your own testing !!!!                                               |
|      Unfortunately you need to use the default for GW and RPA calculations. |
|      (for HF NCORE is supported but not extensively tested yet)             |
|                                                                             |
 ----------------------------------------------------------------------------- 


 ----------------------------------------------------------------------------- 
|                                                                             |
|           W    W    AA    RRRRR   N    N  II  N    N   GGGG   !!!           |
|           W    W   A  A   R    R  NN   N  II  NN   N  G    G  !!!           |
|           W    W  A    A  R    R  N N  N  II  N N  N  G       !!!           |
|           W WW W  AAAAAA  RRRRR   N  N N  II  N  N N  G  GGG   !            |
|           WW  WW  A    A  R   R   N   NN  II  N   NN  G    G                |
|           W    W  A    A  R    R  N    N  II  N    N   GGGG   !!!           |
|                                                                             |
|      You have enabled k-point parallelism (KPAR>1).                         |
|      This developmental code was originally  written by Paul Kent at ORNL,  |
|      and carefully double checked in Vienna.                                |
|      GW as well as linear response parallelism added by Martijn Marsman     |
|      and Georg Kresse.                                                      |
|      Carefully verify results versus KPAR=1.                                |
|      Report problems to Paul Kent and Vienna.                               |
|                                                                             |
 ----------------------------------------------------------------------------- 

 LDA part: xc-table for Pade appr. of Perdew
 POSCAR, INCAR and KPOINTS ok, starting setup
 FFT: planning ...
 WAVECAR not read
 entering main loop
       N       E                     dE             d eps       ncg     rms          rms(c)
DAV:   1     0.245203342714E+03    0.24520E+03   -0.11559E+04  2816   0.995E+02
DAV:   2     0.541826945424E+01   -0.23979E+03   -0.22869E+03  4210   0.218E+02
DAV:   3    -0.169759062022E+02   -0.22394E+02   -0.22043E+02  3404   0.754E+01
DAV:   4    -0.174762068828E+02   -0.50030E+00   -0.49874E+00  3492   0.128E+01
DAV:   5    -0.174889527937E+02   -0.12746E-01   -0.12741E-01  3446   0.200E+00    0.154E+01
DAV:   6    -0.166162040038E+02    0.87275E+00   -0.24560E+00  3498   0.139E+01    0.861E+00
DAV:   7    -0.166116164894E+02    0.45875E-02   -0.56078E-01  3344   0.760E+00    0.314E+00
DAV:   8    -0.166654992150E+02   -0.53883E-01   -0.43139E-01  3494   0.931E+00    0.251E+00
DAV:   9    -0.165636530555E+02    0.10185E+00   -0.16473E-01  3470   0.577E+00    0.430E-01
DAV:  10    -0.165614907620E+02    0.21623E-02   -0.23277E-02  3204   0.114E+00    0.178E-01
DAV:  11    -0.165614109602E+02    0.79802E-04   -0.29172E-03  3464   0.421E-01    0.976E-02
DAV:  12    -0.165613758532E+02    0.35107E-04   -0.16512E-04  4518   0.958E-02    0.596E-02
DAV:  13    -0.165613892304E+02   -0.13377E-04   -0.20129E-04  3966   0.141E-01    0.234E-02
DAV:  14    -0.165614005787E+02   -0.11348E-04   -0.82130E-05  3428   0.749E-02    0.213E-02
DAV:  15    -0.165614144664E+02   -0.13888E-04   -0.11265E-05  3236   0.206E-02    0.116E-02
DAV:  16    -0.165614367294E+02   -0.22263E-04   -0.28281E-06  3218   0.884E-03    0.405E-03
DAV:  17    -0.165614579426E+02   -0.21213E-04   -0.17933E-06  3446   0.807E-03    0.267E-03
DAV:  18    -0.165614847170E+02   -0.26774E-04   -0.44465E-06  3194   0.987E-03    0.306E-03
DAV:  19    -0.165614879379E+02   -0.32209E-05   -0.59814E-07  3590   0.714E-03    0.183E-03
DAV:  20    -0.165614901213E+02   -0.21833E-05   -0.24426E-07  3218   0.305E-03    0.875E-04
DAV:  21    -0.165614914616E+02   -0.13403E-05   -0.56341E-08  2574   0.104E-03    0.463E-04
DAV:  22    -0.165614927173E+02   -0.12557E-05   -0.53941E-08  2370   0.862E-04    0.273E-04
DAV:  23    -0.165614933250E+02   -0.60771E-06   -0.14065E-08  2314   0.628E-04    0.273E-04
DAV:  24    -0.165614940322E+02   -0.70712E-06   -0.12314E-08  2284   0.392E-04    0.204E-04
DAV:  25    -0.165614944998E+02   -0.46760E-06   -0.14285E-08  2328   0.427E-04    0.759E-05
DAV:  26    -0.165614945830E+02   -0.83269E-07   -0.62777E-09  2236   0.399E-04    0.111E-04
DAV:  27    -0.165614946001E+02   -0.17120E-07   -0.43081E-09  2290   0.645E-04
   1 F= -.17783719E+02 E0= -.17783719E+02  d E =-.177837E+02
stress tensor set to zero in row and column 1
stress tensor set to zero in row and column 2
stress tensor set to zero in row and column 3
 BRION: g(F)=  0.111E-02 g(S)=  0.000E+00
 bond charge predicted
       N       E                     dE             d eps       ncg     rms          rms(c)
DAV:   1    -0.165615645254E+02   -0.69942E-04   -0.15777E-01  2816   0.210E+00    0.169E-01
DAV:   2    -0.165619138015E+02   -0.34928E-03   -0.38690E-03  3266   0.396E-01    0.664E-02
DAV:   3    -0.165619032058E+02    0.10596E-04   -0.82854E-05  3398   0.829E-02    0.452E-02
DAV:   4    -0.165619166683E+02   -0.13463E-04   -0.62945E-05  3344   0.106E-01    0.380E-02
DAV:   5    -0.165619056421E+02    0.11026E-04   -0.40877E-05  3278   0.860E-02    0.601E-03
DAV:   6    -0.165619062107E+02   -0.56868E-06   -0.60538E-06  3236   0.182E-02    0.506E-03
DAV:   7    -0.165619060419E+02    0.16883E-06   -0.53766E-07  3326   0.454E-03    0.294E-03
DAV:   8    -0.165619060513E+02   -0.93546E-08   -0.11160E-06  3380   0.577E-03    0.127E-03
DAV:   9    -0.165619060599E+02   -0.86479E-08   -0.12805E-07  2948   0.221E-03
   2 F= -.17784557E+02 E0= -.17784557E+02  d E =-.838165E-03
stress tensor set to zero in row and column 1
stress tensor set to zero in row and column 2
stress tensor set to zero in row and column 3
 BRION: g(F)=  0.499E-03 g(S)=  0.000E+00 retain N=  1 mean eig= 1.05
 eig:   1.053
 bond charge predicted
       N       E                     dE             d eps       ncg     rms          rms(c)
DAV:   1    -0.165619347109E+02   -0.28660E-04   -0.48631E-02  2816   0.114E+00    0.134E-01
DAV:   2    -0.165621141523E+02   -0.17944E-03   -0.20719E-03  3326   0.260E-01    0.340E-02
DAV:   3    -0.165621139941E+02    0.15823E-06   -0.35851E-05  3344   0.615E-02    0.247E-02
DAV:   4    -0.165621142211E+02   -0.22700E-06   -0.15392E-05  3446   0.565E-02    0.188E-02
DAV:   5    -0.165621130120E+02    0.12090E-05   -0.12147E-05  3296   0.362E-02    0.327E-03
DAV:   6    -0.165621129903E+02    0.21759E-07   -0.20030E-06  3488   0.926E-03    0.257E-03
DAV:   7    -0.165621129220E+02    0.68259E-07   -0.17639E-07  3256   0.259E-03    0.163E-03
DAV:   8    -0.165621129712E+02   -0.49141E-07   -0.16877E-07  3260   0.220E-03
   3 F= -.17785001E+02 E0= -.17785001E+02  d E =-.444027E-03
stress tensor set to zero in row and column 1
stress tensor set to zero in row and column 2
stress tensor set to zero in row and column 3
 BRION: g(F)=  0.230E-03 g(S)=  0.000E+00 retain N=  2 mean eig= 1.73
 eig:   1.731  1.731
 bond charge predicted
       N       E                     dE             d eps       ncg     rms          rms(c)
DAV:   1    -0.165611699404E+02    0.94298E-03   -0.22817E-01  2816   0.252E+00    0.280E-01
DAV:   2    -0.165619625557E+02   -0.79262E-03   -0.89734E-03  3344   0.546E-01    0.819E-02
DAV:   3    -0.165619508054E+02    0.11750E-04   -0.13551E-04  3416   0.102E-01    0.581E-02
DAV:   4    -0.165619681338E+02   -0.17328E-04   -0.93592E-05  3272   0.128E-01    0.440E-02
DAV:   5    -0.165619492473E+02    0.18887E-04   -0.62580E-05  3224   0.106E-01    0.697E-03
DAV:   6    -0.165619490315E+02    0.21581E-06   -0.81918E-06  3152   0.213E-02    0.655E-03
DAV:   7    -0.165619487038E+02    0.32770E-06   -0.71543E-07  3470   0.532E-03    0.433E-03
DAV:   8    -0.165619486415E+02    0.62257E-07   -0.13221E-06  3500   0.637E-03    0.186E-03
DAV:   9    -0.165619486668E+02   -0.25316E-07   -0.18013E-07  3224   0.252E-03
   4 F= -.17785392E+02 E0= -.17785392E+02  d E =-.390809E-03
stress tensor set to zero in row and column 1
stress tensor set to zero in row and column 2
stress tensor set to zero in row and column 3
 BRION: g(F)=  0.165E-05 g(S)=  0.000E+00 retain N=  2 mean eig= 2.88
 eig:   2.875  2.875
 bond charge predicted
       N       E                     dE             d eps       ncg     rms          rms(c)
DAV:   1    -0.165619537945E+02   -0.51530E-05   -0.19530E-04  2816   0.748E-02    0.563E-03
DAV:   2    -0.165619543885E+02   -0.59398E-06   -0.60724E-06  3242   0.186E-02    0.405E-03
DAV:   3    -0.165619542676E+02    0.12082E-06   -0.91093E-07  3308   0.123E-02    0.193E-03
DAV:   4    -0.165619542742E+02   -0.65547E-08   -0.18025E-07  2766   0.654E-03
   5 F= -.17785393E+02 E0= -.17785393E+02  d E =-.133018E-05
stress tensor set to zero in row and column 1
stress tensor set to zero in row and column 2
stress tensor set to zero in row and column 3
 BRION: g(F)=  0.670E-06 g(S)=  0.000E+00 retain N=  3 mean eig= 3.62
 eig:   1.572  4.645  4.645
 bond charge predicted
       N       E                     dE             d eps       ncg     rms          rms(c)
DAV:   1    -0.165619548833E+02   -0.61566E-06   -0.18630E-04  2888   0.731E-02    0.486E-03
DAV:   2    -0.165619554688E+02   -0.58551E-06   -0.62653E-06  3308   0.159E-02    0.259E-03
DAV:   3    -0.165619554407E+02    0.28096E-07   -0.29153E-07  3278   0.647E-03
   6 F= -.17785394E+02 E0= -.17785394E+02  d E =-.900320E-06
stress tensor set to zero in row and column 1
stress tensor set to zero in row and column 2
stress tensor set to zero in row and column 3
 BRION: g(F)=  0.251E-06 g(S)=  0.000E+00 retain N=  4 mean eig= 4.78
 eig:   7.250  7.250  2.305  2.305
 bond charge predicted
       N       E                     dE             d eps       ncg     rms          rms(c)
DAV:   1    -0.165619583284E+02   -0.28596E-05   -0.20587E-04  3038   0.765E-02    0.561E-03
DAV:   2    -0.165619590057E+02   -0.67732E-06   -0.77057E-06  3428   0.165E-02    0.266E-03
DAV:   3    -0.165619589876E+02    0.18049E-07   -0.12180E-07  2936   0.301E-03
   7 F= -.17785395E+02 E0= -.17785395E+02  d E =-.426412E-06
stress tensor set to zero in row and column 1
stress tensor set to zero in row and column 2
stress tensor set to zero in row and column 3
 BRION: g(F)=  0.802E-07 g(S)=  0.000E+00 retain N=  2 mean eig= 4.05
 eig:   4.053  4.053
 reached required accuracy - stopping structural energy minimisation
 writing wavefunctions
