 vasp.5.4.4.16052018 (build Dec 07 2020 11:33:42) complex                       
  
 executed on             LinuxIFC date 2020.12.16  02:58:20
 running on    8 total cores
 distrk:  each k-point on    2 cores,    4 groups
 distr:  one band on NCORES_PER_BAND=   1 cores,    2 groups


--------------------------------------------------------------------------------------------------------


 INCAR:
 POTCAR:    PAW_PBE Cl 06Sep2000                  
 POTCAR:    PAW_PBE Br 06Sep2000                  
 POTCAR:    PAW_PBE Pt 04Feb2005                  

 ----------------------------------------------------------------------------- 
|                                                                             |
|           W    W    AA    RRRRR   N    N  II  N    N   GGGG   !!!           |
|           W    W   A  A   R    R  NN   N  II  NN   N  G    G  !!!           |
|           W    W  A    A  R    R  N N  N  II  N N  N  G       !!!           |
|           W WW W  AAAAAA  RRRRR   N  N N  II  N  N N  G  GGG   !            |
|           WW  WW  A    A  R   R   N   NN  II  N   NN  G    G                |
|           W    W  A    A  R    R  N    N  II  N    N   GGGG   !!!           |
|                                                                             |
|      For optimal performance we recommend to set                            |
|        NCORE= 4 - approx SQRT( number of cores)                             |
|      NCORE specifies how many cores store one orbital (NPAR=cpu/NCORE).     |
|      This setting can  greatly improve the performance of VASP for DFT.     |
|      The default,   NCORE=1            might be grossly inefficient         |
|      on modern multi-core architectures or massively parallel machines.     |
|      Do your own testing !!!!                                               |
|      Unfortunately you need to use the default for GW and RPA calculations. |
|      (for HF NCORE is supported but not extensively tested yet)             |
|                                                                             |
 ----------------------------------------------------------------------------- 


 ----------------------------------------------------------------------------- 
|                                                                             |
|           W    W    AA    RRRRR   N    N  II  N    N   GGGG   !!!           |
|           W    W   A  A   R    R  NN   N  II  NN   N  G    G  !!!           |
|           W    W  A    A  R    R  N N  N  II  N N  N  G       !!!           |
|           W WW W  AAAAAA  RRRRR   N  N N  II  N  N N  G  GGG   !            |
|           WW  WW  A    A  R   R   N   NN  II  N   NN  G    G                |
|           W    W  A    A  R    R  N    N  II  N    N   GGGG   !!!           |
|                                                                             |
|      You have enabled k-point parallelism (KPAR>1).                         |
|      This developmental code was originally  written by Paul Kent at ORNL,  |
|      and carefully double checked in Vienna.                                |
|      GW as well as linear response parallelism added by Martijn Marsman     |
|      and Georg Kresse.                                                      |
|      Carefully verify results versus KPAR=1.                                |
|      Report problems to Paul Kent and Vienna.                               |
|                                                                             |
 ----------------------------------------------------------------------------- 

 POTCAR:    PAW_PBE Cl 06Sep2000                  
   VRHFIN =Cl: s2p5                                                             
   LEXCH  = PE                                                                  
   EATOM  =   409.7259 eV,   30.1140 Ry                                         
                                                                                
   TITEL  = PAW_PBE Cl 06Sep2000                                                
   LULTRA =        F    use ultrasoft PP ?                                      
   IUNSCR =        1    unscreen: 0-lin 1-nonlin 2-no                           
   RPACOR =    1.500    partial core radius                                     
   POMASS =   35.453; ZVAL   =    7.000    mass and valenz                      
   RCORE  =    1.900    outmost cutoff radius                                   
   RWIGS  =    2.100; RWIGS  =    1.111    wigner-seitz radius (au A)           
   ENMAX  =  262.472; ENMIN  =  196.854 eV                                      
   ICORE  =        2    local potential                                         
   LCOR   =        T    correct aug charges                                     
   LPAW   =        T    paw PP                                                  
   EAUG   =  356.192                                                            
   DEXC   =    0.000                                                            
   RMAX   =    1.945    core radius for proj-oper                               
   RAUG   =    1.300    factor for augmentation sphere                          
   RDEP   =    2.020    radius for radial grids                                 
   RDEPT  =    1.678    core radius for aug-charge                              
                                                                                
   Atomic configuration                                                         
    6 entries                                                                   
     n  l   j            E        occ.                                          
     1  0  0.50     -2751.1850   2.0000                                         
     2  0  0.50      -252.6861   2.0000                                         
     2  1  1.50      -191.6157   6.0000                                         
     3  0  0.50       -20.6916   2.0000                                         
     3  1  0.50        -8.5949   5.0000                                         
     3  2  1.50        -8.1635   0.0000                                         
   Description                                                                  
     l       E           TYP  RCUT    TYP  RCUT                                 
     0    -20.6915656     23  1.900                                             
     0    -22.0521482     23  1.900                                             
     1     -8.5948577     23  1.900                                             
     1     -5.3847331     23  1.900                                             
     2     -8.1634956     23  1.900                                             
  local pseudopotential read in
  partial core-charges read in
  partial kinetic energy density read in
  atomic valenz-charges read in
  non local Contribution for L=           0  read in
    real space projection operators read in
  non local Contribution for L=           0  read in
    real space projection operators read in
  non local Contribution for L=           1  read in
    real space projection operators read in
  non local Contribution for L=           1  read in
    real space projection operators read in
    PAW grid and wavefunctions read in
 
   number of l-projection  operators is LMAX  =           4
   number of lm-projection operators is LMMAX =           8
 
 POTCAR:    PAW_PBE Br 06Sep2000                  
   VRHFIN =Br: s2p5                                                             
   LEXCH  = PE                                                                  
   EATOM  =   368.4488 eV,   27.0802 Ry                                         
                                                                                
   TITEL  = PAW_PBE Br 06Sep2000                                                
   LULTRA =        F    use ultrasoft PP ?                                      
   IUNSCR =        1    unscreen: 0-lin 1-nonlin 2-no                           
   RPACOR =    1.900    partial core radius                                     
   POMASS =   79.904; ZVAL   =    7.000    mass and valenz                      
   RCORE  =    2.100    outmost cutoff radius                                   
   RWIGS  =    2.200; RWIGS  =    1.164    wigner-seitz radius (au A)           
   ENMAX  =  216.285; ENMIN  =  162.214 eV                                      
   ICORE  =        3    local potential                                         
   LCOR   =        T    correct aug charges                                     
   LPAW   =        T    paw PP                                                  
   EAUG   =  503.852                                                            
   DEXC   =    0.000                                                            
   RMAX   =    2.139    core radius for proj-oper                               
   RAUG   =    1.300    factor for augmentation sphere                          
   RDEP   =    2.186    radius for radial grids                                 
   RDEPT  =    1.890    core radius for aug-charge                              
                                                                                
   Atomic configuration                                                         
   10 entries                                                                   
     n  l   j            E        occ.                                          
     1  0  0.50    -13316.2796   2.0000                                         
     2  0  0.50     -1732.8239   2.0000                                         
     2  1  1.50     -1528.2193   6.0000                                         
     3  0  0.50      -238.0460   2.0000                                         
     3  1  1.50      -173.4609   6.0000                                         
     3  2  2.50       -66.7132  10.0000                                         
     4  0  0.50       -20.1334   2.0000                                         
     4  1  0.50        -7.8591   5.0000                                         
     4  2  2.50        -8.1635   0.0000                                         
     4  3  2.50        -8.1635   0.0000                                         
   Description                                                                  
     l       E           TYP  RCUT    TYP  RCUT                                 
     0    -20.1333652     23  2.100                                             
     0    -21.4939478     23  2.100                                             
     1     -7.8591052     23  2.100                                             
     1     -3.1608434     23  2.100                                             
     2     -8.1634956     23  2.100                                             
     3     -1.3605826      7  2.100                                             
  local pseudopotential read in
  partial core-charges read in
  partial kinetic energy density read in
  atomic valenz-charges read in
  non local Contribution for L=           0  read in
    real space projection operators read in
  non local Contribution for L=           0  read in
    real space projection operators read in
  non local Contribution for L=           1  read in
    real space projection operators read in
  non local Contribution for L=           1  read in
    real space projection operators read in
  non local Contribution for L=           2  read in
    real space projection operators read in
    PAW grid and wavefunctions read in
 
   number of l-projection  operators is LMAX  =           5
   number of lm-projection operators is LMMAX =          13
 
 POTCAR:    PAW_PBE Pt 04Feb2005                  
   VRHFIN =Pt: s1d9                                                             
   LEXCH  = PE                                                                  
   EATOM  =   729.1176 eV,   53.5886 Ry                                         
                                                                                
   TITEL  = PAW_PBE Pt 04Feb2005                                                
   LULTRA =        F    use ultrasoft PP ?                                      
   IUNSCR =        1    unscreen: 0-lin 1-nonlin 2-no                           
   RPACOR =    2.330    partial core radius                                     
   POMASS =  195.080; ZVAL   =   10.000    mass and valenz                      
   RCORE  =    2.600    outmost cutoff radius                                   
   RWIGS  =    2.750; RWIGS  =    1.455    wigner-seitz radius (au A)           
   ENMAX  =  230.283; ENMIN  =  172.712 eV                                      
   ICORE  =        3    local potential                                         
   LCOR   =        T    correct aug charges                                     
   LPAW   =        T    paw PP                                                  
   EAUG   =  358.966                                                            
   DEXC   =    0.000                                                            
   RMAX   =    2.658    core radius for proj-oper                               
   RAUG   =    1.300    factor for augmentation sphere                          
   RDEP   =    2.761    radius for radial grids                                 
   RDEPT  =    2.203    core radius for aug-charge                              
                                                                                
   Atomic configuration                                                         
   16 entries                                                                   
     n  l   j            E        occ.                                          
     1  0  0.50    -78401.1885   2.0000                                         
     2  0  0.50    -13770.7750   2.0000                                         
     2  1  1.50    -11931.0468   6.0000                                         
     3  0  0.50     -3234.7234   2.0000                                         
     3  1  1.50     -2699.2216   6.0000                                         
     3  2  2.50     -2119.5714  10.0000                                         
     4  0  0.50      -695.1528   2.0000                                         
     4  1  1.50      -519.6034   6.0000                                         
     4  2  2.50      -306.6786  10.0000                                         
     4  3  3.50       -70.1041  14.0000                                         
     5  0  0.50      -101.7747   2.0000                                         
     5  1  1.50       -55.9873   6.0000                                         
     5  2  2.50        -6.1423   9.0000                                         
     6  0  0.50        -5.6573   1.0000                                         
     6  1  1.50        -6.8029   0.0000                                         
     5  3  2.50        -1.3606   0.0000                                         
   Description                                                                  
     l       E           TYP  RCUT    TYP  RCUT                                 
     2     -6.1423404     23  2.500                                             
     2     -7.5029230     23  2.500                                             
     0     -5.6573207     23  2.500                                             
     0      0.7416693     23  2.500                                             
     1     -2.7211652     23  2.600                                             
     1     20.4087390     23  2.600                                             
     3     -1.3605826     23  2.500                                             
  local pseudopotential read in
  partial core-charges read in
  partial kinetic energy density read in
  atomic valenz-charges read in
  non local Contribution for L=           2  read in
    real space projection operators read in
  non local Contribution for L=           2  read in
    real space projection operators read in
  non local Contribution for L=           0  read in
    real space projection operators read in
  non local Contribution for L=           0  read in
    real space projection operators read in
  non local Contribution for L=           1  read in
    real space projection operators read in
  non local Contribution for L=           1  read in
    real space projection operators read in
    PAW grid and wavefunctions read in
 
   number of l-projection  operators is LMAX  =           6
   number of lm-projection operators is LMMAX =          18
 
  PAW_PBE Cl 06Sep2000                  :
 energy of atom  1       EATOM= -409.7259
 kinetic energy error for atom=    0.0089 (will be added to EATOM!!)
  PAW_PBE Br 06Sep2000                  :
 energy of atom  2       EATOM= -368.4488
 kinetic energy error for atom=    0.0032 (will be added to EATOM!!)
  PAW_PBE Pt 04Feb2005                  :
 energy of atom  3       EATOM= -729.1176
 kinetic energy error for atom=    0.0056 (will be added to EATOM!!)
 
 
 POSCAR: ClBrPt2                                 
  positions in direct lattice
  velocities in cartesian coordinates
 exchange correlation table for  LEXCH =        8
   RHO(1)=    0.500       N(1)  =     2000
   RHO(2)=  100.500       N(2)  =     4000
 


--------------------------------------------------------------------------------------------------------


 ion  position               nearest neighbor table
   1  0.000  0.500  0.170-   4 2.50   4 2.50   4 2.50
   2  0.000  0.500  0.385-   3 2.59   3 2.59   3 2.59
   3  0.333  0.167  0.310-   4 2.59   4 2.59   2 2.59   4 2.59   2 2.59   2 2.59
   4  0.667  0.833  0.236-   1 2.50   1 2.50   1 2.50   3 2.59   3 2.59   3 2.59
 

IMPORTANT INFORMATION: All symmetrisations will be switched off!
NOSYMM: (Re-)initialisation of all symmetry stuff for point group C_1.

 
 
 KPOINTS: Automatic mesh                          

Automatic generation of k-mesh.
Space group operators:
 irot       det(A)        alpha          n_x          n_y          n_z        tau_x        tau_y        tau_z
    1     1.000000     0.000000     1.000000     0.000000     0.000000     0.000000     0.000000     0.000000
 
 Subroutine IBZKPT returns following result:
 ===========================================
 
 Found     64 irreducible k-points:
 
 Following reciprocal coordinates:
            Coordinates               Weight
  0.000000  0.000000  0.000000      1.000000
  0.125000  0.000000  0.000000      1.000000
  0.250000  0.000000  0.000000      1.000000
  0.375000 -0.000000  0.000000      1.000000
  0.500000  0.000000  0.000000      1.000000
 -0.375000  0.000000  0.000000      1.000000
 -0.250000 -0.000000  0.000000      1.000000
 -0.125000 -0.000000  0.000000      1.000000
  0.000000  0.125000  0.000000      1.000000
  0.125000  0.125000  0.000000      1.000000
  0.250000  0.125000  0.000000      1.000000
  0.375000  0.125000  0.000000      1.000000
  0.500000  0.125000  0.000000      1.000000
 -0.375000  0.125000  0.000000      1.000000
 -0.250000  0.125000  0.000000      1.000000
 -0.125000  0.125000  0.000000      1.000000
  0.000000  0.250000  0.000000      1.000000
  0.125000  0.250000  0.000000      1.000000
  0.250000  0.250000  0.000000      1.000000
  0.375000  0.250000  0.000000      1.000000
  0.500000  0.250000  0.000000      1.000000
 -0.375000  0.250000  0.000000      1.000000
 -0.250000  0.250000  0.000000      1.000000
 -0.125000  0.250000  0.000000      1.000000
  0.000000  0.375000  0.000000      1.000000
  0.125000  0.375000  0.000000      1.000000
  0.250000  0.375000  0.000000      1.000000
  0.375000  0.375000  0.000000      1.000000
  0.500000  0.375000  0.000000      1.000000
 -0.375000  0.375000  0.000000      1.000000
 -0.250000  0.375000  0.000000      1.000000
 -0.125000  0.375000  0.000000      1.000000
  0.000000  0.500000  0.000000      1.000000
  0.125000  0.500000  0.000000      1.000000
  0.250000  0.500000  0.000000      1.000000
  0.375000  0.500000  0.000000      1.000000
  0.500000  0.500000  0.000000      1.000000
 -0.375000  0.500000  0.000000      1.000000
 -0.250000  0.500000  0.000000      1.000000
 -0.125000  0.500000  0.000000      1.000000
 -0.000000 -0.375000  0.000000      1.000000
  0.125000 -0.375000  0.000000      1.000000
  0.250000 -0.375000  0.000000      1.000000
  0.375000 -0.375000  0.000000      1.000000
  0.500000 -0.375000  0.000000      1.000000
 -0.375000 -0.375000  0.000000      1.000000
 -0.250000 -0.375000  0.000000      1.000000
 -0.125000 -0.375000  0.000000      1.000000
 -0.000000 -0.250000  0.000000      1.000000
  0.125000 -0.250000  0.000000      1.000000
  0.250000 -0.250000  0.000000      1.000000
  0.375000 -0.250000  0.000000      1.000000
  0.500000 -0.250000  0.000000      1.000000
 -0.375000 -0.250000  0.000000      1.000000
 -0.250000 -0.250000  0.000000      1.000000
 -0.125000 -0.250000  0.000000      1.000000
 -0.000000 -0.125000  0.000000      1.000000
  0.125000 -0.125000  0.000000      1.000000
  0.250000 -0.125000  0.000000      1.000000
  0.375000 -0.125000  0.000000      1.000000
  0.500000 -0.125000  0.000000      1.000000
 -0.375000 -0.125000  0.000000      1.000000
 -0.250000 -0.125000  0.000000      1.000000
 -0.125000 -0.125000  0.000000      1.000000
 
 Following cartesian coordinates:
            Coordinates               Weight
  0.000000  0.000000  0.000000      1.000000
  0.034216  0.019204  0.000000      1.000000
  0.068432  0.038408  0.000000      1.000000
  0.102648  0.057612  0.000000      1.000000
  0.136865  0.076817  0.000000      1.000000
 -0.102648 -0.057612  0.000000      1.000000
 -0.068432 -0.038408  0.000000      1.000000
 -0.034216 -0.019204  0.000000      1.000000
  0.000392  0.039282  0.000000      1.000000
  0.034608  0.058486  0.000000      1.000000
  0.068824  0.077690  0.000000      1.000000
  0.103040  0.096895  0.000000      1.000000
  0.137256  0.116099  0.000000      1.000000
 -0.102257 -0.018330  0.000000      1.000000
 -0.068041  0.000874  0.000000      1.000000
 -0.033824  0.020078  0.000000      1.000000
  0.000783  0.078564  0.000000      1.000000
  0.034999  0.097768  0.000000      1.000000
  0.069216  0.116973  0.000000      1.000000
  0.103432  0.136177  0.000000      1.000000
  0.137648  0.155381  0.000000      1.000000
 -0.101865  0.020952  0.000000      1.000000
 -0.067649  0.040156  0.000000      1.000000
 -0.033433  0.059360  0.000000      1.000000
  0.001175  0.117846  0.000000      1.000000
  0.035391  0.137051  0.000000      1.000000
  0.069607  0.156255  0.000000      1.000000
  0.103823  0.175459  0.000000      1.000000
  0.138040  0.194663  0.000000      1.000000
 -0.101473  0.060234  0.000000      1.000000
 -0.067257  0.079438  0.000000      1.000000
 -0.033041  0.098642  0.000000      1.000000
  0.001567  0.157129  0.000000      1.000000
  0.035783  0.176333  0.000000      1.000000
  0.069999  0.195537  0.000000      1.000000
  0.104215  0.214741  0.000000      1.000000
  0.138431  0.233945  0.000000      1.000000
 -0.101082  0.099516  0.000000      1.000000
 -0.066866  0.118720  0.000000      1.000000
 -0.032650  0.137924  0.000000      1.000000
 -0.001175 -0.117846  0.000000      1.000000
  0.033041 -0.098642  0.000000      1.000000
  0.067257 -0.079438  0.000000      1.000000
  0.101473 -0.060234  0.000000      1.000000
  0.135690 -0.041030  0.000000      1.000000
 -0.103823 -0.175459  0.000000      1.000000
 -0.069607 -0.156255  0.000000      1.000000
 -0.035391 -0.137051  0.000000      1.000000
 -0.000783 -0.078564  0.000000      1.000000
  0.033433 -0.059360  0.000000      1.000000
  0.067649 -0.040156  0.000000      1.000000
  0.101865 -0.020952  0.000000      1.000000
  0.136081 -0.001748  0.000000      1.000000
 -0.103432 -0.136177  0.000000      1.000000
 -0.069216 -0.116973  0.000000      1.000000
 -0.034999 -0.097768  0.000000      1.000000
 -0.000392 -0.039282  0.000000      1.000000
  0.033824 -0.020078  0.000000      1.000000
  0.068041 -0.000874  0.000000      1.000000
  0.102257  0.018330  0.000000      1.000000
  0.136473  0.037534  0.000000      1.000000
 -0.103040 -0.096895  0.000000      1.000000
 -0.068824 -0.077690  0.000000      1.000000
 -0.034608 -0.058486  0.000000      1.000000
 


--------------------------------------------------------------------------------------------------------




 Dimension of arrays:
   k-points           NKPTS =     64   k-points in BZ     NKDIM =     64   number of bands    NBANDS=     22
   number of dos      NEDOS =    301   number of ions     NIONS =      4
   non local maximal  LDIM  =      6   non local SUM 2l+1 LMDIM =     18
   total plane-waves  NPLWV =  80640
   max r-space proj   IRMAX =      1   max aug-charges    IRDMAX=  21087
   dimension x,y,z NGX =    24 NGY =   24 NGZ =  140
   dimension x,y,z NGXF=    48 NGYF=   48 NGZF=  280
   support grid    NGXF=    48 NGYF=   48 NGZF=  280
   ions per type =               1   1   2
   NGX,Y,Z   is equivalent  to a cutoff of  10.86, 10.87, 11.64 a.u.
   NGXF,Y,Z  is equivalent  to a cutoff of  21.72, 21.75, 23.27 a.u.

 SYSTEM =  unknown system                          
 POSCAR =  ClBrPt2                                 

 Startparameter for this run:
   NWRITE =      2    write-flag & timer
   PREC   = accura    normal or accurate (medium, high low for compatibility)
   ISTART =      0    job   : 0-new  1-cont  2-samecut
   ICHARG =      2    charge: 1-file 2-atom 10-const
   ISPIN  =      1    spin polarized calculation?
   LNONCOLLINEAR =      F non collinear calculations
   LSORBIT =      F    spin-orbit coupling
   INIWAV =      1    electr: 0-lowe 1-rand  2-diag
   LASPH  =      F    aspherical Exc in radial PAW
   METAGGA=      F    non-selfconsistent MetaGGA calc.

 Electronic Relaxation 1
   ENCUT  =  400.0 eV  29.40 Ry    5.42 a.u.   5.99  5.98 32.61*2*pi/ulx,y,z
   ENINI  =  400.0     initial cutoff
   ENAUG  =  503.9 eV  augmentation charge cutoff
   NELM   =     60;   NELMIN=  2; NELMDL= -5     # of ELM steps 
   EDIFF  = 0.5E-07   stopping-criterion for ELM
   LREAL  =      F    real-space projection
   NLSPLINE    = F    spline interpolate recip. space projectors
   LCOMPAT=      F    compatible to vasp.4.4
   GGA_COMPAT  = T    GGA compatible to vasp.4.4-vasp.4.6
   LMAXPAW     = -100 max onsite density
   LMAXMIX     =    2 max onsite mixed and CHGCAR
   VOSKOWN=      0    Vosko Wilk Nusair interpolation
   ROPT   =    0.00000   0.00000   0.00000
 Ionic relaxation
   EDIFFG = 0.5E-06   stopping-criterion for IOM
   NSW    =    100    number of steps for IOM
   NBLOCK =      1;   KBLOCK =    100    inner block; outer block 
   IBRION =      1    ionic relax: 0-MD 1-quasi-New 2-CG
   NFREE  =      0    steps in history (QN), initial steepest desc. (CG)
   ISIF   =      3    stress and relaxation
   IWAVPR =     11    prediction:  0-non 1-charg 2-wave 3-comb
   ISYM   =     -1    0-nonsym 1-usesym 2-fastsym
   LCORR  =      T    Harris-Foulkes like correction to forces

   POTIM  = 0.5000    time-step for ionic-motion
   TEIN   =    0.0    initial temperature
   TEBEG  =    0.0;   TEEND  =   0.0 temperature during run
   SMASS  =  -3.00    Nose mass-parameter (am)
   estimated Nose-frequenzy (Omega)   =  0.10E-29 period in steps =****** mass=  -0.308E-27a.u.
   SCALEE = 1.0000    scale energy and forces
   NPACO  =    256;   APACO  = 16.0  distance and # of slots for P.C.
   PSTRESS=    0.0 pullay stress

  Mass of Ions in am
   POMASS =  35.45 79.90195.08
  Ionic Valenz
   ZVAL   =   7.00  7.00 10.00
  Atomic Wigner-Seitz radii
   RWIGS  =  -1.00 -1.00 -1.00
  virtual crystal weights 
   VCA    =   1.00  1.00  1.00
   NELECT =      34.0000    total number of electrons
   NUPDOWN=      -1.0000    fix difference up-down

 DOS related values:
   EMIN   =  10.00;   EMAX   =-10.00  energy-range for DOS
   EFERMI =   0.00
   ISMEAR =     0;   SIGMA  =   0.10  broadening in eV -4-tet -1-fermi 0-gaus

 Electronic relaxation 2 (details)
   IALGO  =     38    algorithm
   LDIAG  =      T    sub-space diagonalisation (order eigenvalues)
   LSUBROT=      F    optimize rotation matrix (better conditioning)
   TURBO    =      0    0=normal 1=particle mesh
   IRESTART =      0    0=no restart 2=restart with 2 vectors
   NREBOOT  =      0    no. of reboots
   NMIN     =      0    reboot dimension
   EREF     =   0.00    reference energy to select bands
   IMIX   =      4    mixing-type and parameters
     AMIX     =   0.40;   BMIX     =  1.00
     AMIX_MAG =   1.60;   BMIX_MAG =  1.00
     AMIN     =   0.10
     WC   =   100.;   INIMIX=   1;  MIXPRE=   1;  MAXMIX= -45

 Intra band minimization:
   WEIMIN = 0.0010     energy-eigenvalue tresh-hold
   EBREAK =  0.57E-09  absolut break condition
   DEPER  =   0.30     relativ break condition  

   TIME   =   0.40     timestep for ELM

  volume/ion in A,a.u.               =      58.45       394.46
  Fermi-wavevector in a.u.,A,eV,Ry     =   0.860890  1.626845 10.083696  0.741131
  Thomas-Fermi vector in A             =   1.978462
 
 Write flags
   LWAVE        =      T    write WAVECAR
   LDOWNSAMPLE  =      F    k-point downsampling of WAVECAR
   LCHARG       =      T    write CHGCAR
   LVTOT        =      F    write LOCPOT, total local potential
   LVHAR        =      F    write LOCPOT, Hartree potential only
   LELF         =      F    write electronic localiz. function (ELF)
   LORBIT       =      0    0 simple, 1 ext, 2 COOP (PROOUT), +10 PAW based schemes


 Dipole corrections
   LMONO  =      F    monopole corrections only (constant potential shift)
   LDIPOL =      T    correct potential (dipole corrections)
   IDIPOL =      3    1-x, 2-y, 3-z, 4-all directions 
   EPSILON=  1.0000000 bulk dielectric constant

 Exchange correlation treatment:
   GGA     =    --    GGA type
   LEXCH   =     8    internal setting for exchange type
   VOSKOWN=      0    Vosko Wilk Nusair interpolation
   LHFCALC =     F    Hartree Fock is set to
   LHFONE  =     F    Hartree Fock one center treatment
   AEXX    =    0.0000 exact exchange contribution

 Linear response parameters
   LEPSILON=     F    determine dielectric tensor
   LRPA    =     F    only Hartree local field effects (RPA)
   LNABLA  =     F    use nabla operator in PAW spheres
   LVEL    =     F    velocity operator in full k-point grid
   LINTERFAST=   F  fast interpolation
   KINTER  =     0    interpolate to denser k-point grid
   CSHIFT  =0.1000    complex shift for real part using Kramers Kronig
   OMEGAMAX=  -1.0    maximum frequency
   DEG_THRESHOLD= 0.2000000E-02 threshold for treating states as degnerate
   RTIME   =   -0.100 relaxation time in fs
  (WPLASMAI=    0.000 imaginary part of plasma frequency in eV, 0.658/RTIME)
   DFIELD  = 0.0000000 0.0000000 0.0000000 field for delta impulse in time
 
 Orbital magnetization related:
   ORBITALMAG=     F  switch on orbital magnetization
   LCHIMAG   =     F  perturbation theory with respect to B field
   DQ        =  0.001000  dq finite difference perturbation B field
   LLRAUG    =     F  two centre corrections for induced B field



--------------------------------------------------------------------------------------------------------


 quasi-Newton-method for relaxation of ions
 charge density and potential will be updated during run
 non-spin polarized calculation
 Variant of blocked Davidson
 Davidson routine will perform the subspace rotation
 perform sub-space diagonalisation
    after iterative eigenvector-optimisation
 modified Broyden-mixing scheme, WC =      100.0
 initial mixing is a Kerker type mixing with AMIX =  0.4000 and BMIX =      1.0000
 Hartree-type preconditioning will be used
 using additional bands            5
 reciprocal scheme for non local part
 use partial core corrections
 calculate Harris-corrections to forces 
   (improved forces if not selfconsistent)
 use gradient corrections 
 use of overlap-Matrix (Vanderbilt PP)
 Gauss-broadening in eV      SIGMA  =   0.10


--------------------------------------------------------------------------------------------------------


  energy-cutoff  :      400.00
  volume of cell :      233.81
      direct lattice vectors                 reciprocal lattice vectors
     3.673805649 -0.036629028  0.000000000     0.273729079  0.153633234  0.000000000
    -1.796041249  3.200015421  0.000000000     0.003133244  0.314257059  0.000000000
     0.000000000  0.000000000 20.000000000     0.000000000  0.000000000  0.050000000

  length of vectors
     3.673988246  3.669586197 20.000000000     0.313896128  0.314272679  0.050000000


 
 k-points in units of 2pi/SCALE and weight: Automatic mesh                          
   0.00000000  0.00000000  0.00000000       0.016
   0.03421613  0.01920415  0.00000000       0.016
   0.06843227  0.03840831  0.00000000       0.016
   0.10264840  0.05761246  0.00000000       0.016
   0.13686454  0.07681662  0.00000000       0.016
  -0.10264840 -0.05761246  0.00000000       0.016
  -0.06843227 -0.03840831  0.00000000       0.016
  -0.03421613 -0.01920415  0.00000000       0.016
   0.00039166  0.03928213  0.00000000       0.016
   0.03460779  0.05848629  0.00000000       0.016
   0.06882393  0.07769044  0.00000000       0.016
   0.10304006  0.09689459  0.00000000       0.016
   0.13725619  0.11609875  0.00000000       0.016
  -0.10225675 -0.01833033  0.00000000       0.016
  -0.06804061  0.00087382  0.00000000       0.016
  -0.03382448  0.02007798  0.00000000       0.016
   0.00078331  0.07856426  0.00000000       0.016
   0.03499945  0.09776842  0.00000000       0.016
   0.06921558  0.11697257  0.00000000       0.016
   0.10343172  0.13617673  0.00000000       0.016
   0.13764785  0.15538088  0.00000000       0.016
  -0.10186509  0.02095180  0.00000000       0.016
  -0.06764896  0.04015596  0.00000000       0.016
  -0.03343282  0.05936011  0.00000000       0.016
   0.00117497  0.11784640  0.00000000       0.016
   0.03539110  0.13705055  0.00000000       0.016
   0.06960724  0.15625471  0.00000000       0.016
   0.10382337  0.17545886  0.00000000       0.016
   0.13803951  0.19466301  0.00000000       0.016
  -0.10147344  0.06023393  0.00000000       0.016
  -0.06725730  0.07943809  0.00000000       0.016
  -0.03304117  0.09864224  0.00000000       0.016
   0.00156662  0.15712853  0.00000000       0.016
   0.03578276  0.17633268  0.00000000       0.016
   0.06999889  0.19553684  0.00000000       0.016
   0.10421503  0.21474099  0.00000000       0.016
   0.13843116  0.23394515  0.00000000       0.016
  -0.10108178  0.09951607  0.00000000       0.016
  -0.06686565  0.11872022  0.00000000       0.016
  -0.03264951  0.13792438  0.00000000       0.016
  -0.00117497 -0.11784640  0.00000000       0.016
   0.03304117 -0.09864224  0.00000000       0.016
   0.06725730 -0.07943809  0.00000000       0.016
   0.10147344 -0.06023393  0.00000000       0.016
   0.13568957 -0.04102978  0.00000000       0.016
  -0.10382337 -0.17545886  0.00000000       0.016
  -0.06960724 -0.15625471  0.00000000       0.016
  -0.03539110 -0.13705055  0.00000000       0.016
  -0.00078331 -0.07856426  0.00000000       0.016
   0.03343282 -0.05936011  0.00000000       0.016
   0.06764896 -0.04015596  0.00000000       0.016
   0.10186509 -0.02095180  0.00000000       0.016
   0.13608123 -0.00174765  0.00000000       0.016
  -0.10343172 -0.13617673  0.00000000       0.016
  -0.06921558 -0.11697257  0.00000000       0.016
  -0.03499945 -0.09776842  0.00000000       0.016
  -0.00039166 -0.03928213  0.00000000       0.016
   0.03382448 -0.02007798  0.00000000       0.016
   0.06804061 -0.00087382  0.00000000       0.016
   0.10225675  0.01833033  0.00000000       0.016
   0.13647288  0.03753448  0.00000000       0.016
  -0.10304006 -0.09689459  0.00000000       0.016
  -0.06882393 -0.07769044  0.00000000       0.016
  -0.03460779 -0.05848629  0.00000000       0.016
 
 k-points in reciprocal lattice and weights: Automatic mesh                          
   0.00000000  0.00000000  0.00000000       0.016
   0.12500000  0.00000000  0.00000000       0.016
   0.25000000  0.00000000  0.00000000       0.016
   0.37500000 -0.00000000  0.00000000       0.016
   0.50000000  0.00000000  0.00000000       0.016
  -0.37500000  0.00000000  0.00000000       0.016
  -0.25000000 -0.00000000  0.00000000       0.016
  -0.12500000 -0.00000000  0.00000000       0.016
   0.00000000  0.12500000  0.00000000       0.016
   0.12500000  0.12500000  0.00000000       0.016
   0.25000000  0.12500000  0.00000000       0.016
   0.37500000  0.12500000  0.00000000       0.016
   0.50000000  0.12500000  0.00000000       0.016
  -0.37500000  0.12500000  0.00000000       0.016
  -0.25000000  0.12500000  0.00000000       0.016
  -0.12500000  0.12500000  0.00000000       0.016
   0.00000000  0.25000000  0.00000000       0.016
   0.12500000  0.25000000  0.00000000       0.016
   0.25000000  0.25000000  0.00000000       0.016
   0.37500000  0.25000000  0.00000000       0.016
   0.50000000  0.25000000  0.00000000       0.016
  -0.37500000  0.25000000  0.00000000       0.016
  -0.25000000  0.25000000  0.00000000       0.016
  -0.12500000  0.25000000  0.00000000       0.016
   0.00000000  0.37500000  0.00000000       0.016
   0.12500000  0.37500000  0.00000000       0.016
   0.25000000  0.37500000  0.00000000       0.016
   0.37500000  0.37500000  0.00000000       0.016
   0.50000000  0.37500000  0.00000000       0.016
  -0.37500000  0.37500000  0.00000000       0.016
  -0.25000000  0.37500000  0.00000000       0.016
  -0.12500000  0.37500000  0.00000000       0.016
   0.00000000  0.50000000  0.00000000       0.016
   0.12500000  0.50000000  0.00000000       0.016
   0.25000000  0.50000000  0.00000000       0.016
   0.37500000  0.50000000  0.00000000       0.016
   0.50000000  0.50000000  0.00000000       0.016
  -0.37500000  0.50000000  0.00000000       0.016
  -0.25000000  0.50000000  0.00000000       0.016
  -0.12500000  0.50000000  0.00000000       0.016
  -0.00000000 -0.37500000  0.00000000       0.016
   0.12500000 -0.37500000  0.00000000       0.016
   0.25000000 -0.37500000  0.00000000       0.016
   0.37500000 -0.37500000  0.00000000       0.016
   0.50000000 -0.37500000  0.00000000       0.016
  -0.37500000 -0.37500000  0.00000000       0.016
  -0.25000000 -0.37500000  0.00000000       0.016
  -0.12500000 -0.37500000  0.00000000       0.016
  -0.00000000 -0.25000000  0.00000000       0.016
   0.12500000 -0.25000000  0.00000000       0.016
   0.25000000 -0.25000000  0.00000000       0.016
   0.37500000 -0.25000000  0.00000000       0.016
   0.50000000 -0.25000000  0.00000000       0.016
  -0.37500000 -0.25000000  0.00000000       0.016
  -0.25000000 -0.25000000  0.00000000       0.016
  -0.12500000 -0.25000000  0.00000000       0.016
  -0.00000000 -0.12500000  0.00000000       0.016
   0.12500000 -0.12500000  0.00000000       0.016
   0.25000000 -0.12500000  0.00000000       0.016
   0.37500000 -0.12500000  0.00000000       0.016
   0.50000000 -0.12500000  0.00000000       0.016
  -0.37500000 -0.12500000  0.00000000       0.016
  -0.25000000 -0.12500000  0.00000000       0.016
  -0.12500000 -0.12500000  0.00000000       0.016
 
 position of ions in fractional coordinates (direct lattice) 
   0.00003260  0.49996075  0.16956139
   0.00003230  0.49996081  0.38463917
   0.33336554  0.16662771  0.31010675
   0.66669896  0.83329437  0.23592599
 
 position of ions in cartesian coordinates  (Angst):
  -0.89783036  1.59988091  3.39122782
  -0.89783160  1.59988113  7.69278339
   0.92544997  0.52100038  6.20213491
   0.95269133  2.64213430  4.71851980
 


--------------------------------------------------------------------------------------------------------


 k-point  1 :   0.0000 0.0000 0.0000  plane waves:    4187
 k-point  2 :   0.1250 0.0000 0.0000  plane waves:    4191
 k-point  3 :   0.2500 0.0000 0.0000  plane waves:    4232
 k-point  4 :   0.3750-0.0000 0.0000  plane waves:    4224
 k-point  5 :   0.5000 0.0000 0.0000  plane waves:    4264
 k-point  6 :  -0.3750 0.0000 0.0000  plane waves:    4224
 k-point  7 :  -0.2500-0.0000 0.0000  plane waves:    4232
 k-point  8 :  -0.1250-0.0000 0.0000  plane waves:    4191
 k-point  9 :   0.0000 0.1250 0.0000  plane waves:    4189
 k-point 10 :   0.1250 0.1250 0.0000  plane waves:    4228
 k-point 11 :   0.2500 0.1250 0.0000  plane waves:    4257
 k-point 12 :   0.3750 0.1250 0.0000  plane waves:    4257
 k-point 13 :   0.5000 0.1250 0.0000  plane waves:    4259
 k-point 14 :  -0.3750 0.1250 0.0000  plane waves:    4255
 k-point 15 :  -0.2500 0.1250 0.0000  plane waves:    4227
 k-point 16 :  -0.1250 0.1250 0.0000  plane waves:    4189
 k-point 17 :   0.0000 0.2500 0.0000  plane waves:    4228
 k-point 18 :   0.1250 0.2500 0.0000  plane waves:    4251
 k-point 19 :   0.2500 0.2500 0.0000  plane waves:    4262
 k-point 20 :   0.3750 0.2500 0.0000  plane waves:    4280
 k-point 21 :   0.5000 0.2500 0.0000  plane waves:    4262
 k-point 22 :  -0.3750 0.2500 0.0000  plane waves:    4251
 k-point 23 :  -0.2500 0.2500 0.0000  plane waves:    4232
 k-point 24 :  -0.1250 0.2500 0.0000  plane waves:    4225
 k-point 25 :   0.0000 0.3750 0.0000  plane waves:    4218
 k-point 26 :   0.1250 0.3750 0.0000  plane waves:    4259
 k-point 27 :   0.2500 0.3750 0.0000  plane waves:    4282
 k-point 28 :   0.3750 0.3750 0.0000  plane waves:    4282
 k-point 29 :   0.5000 0.3750 0.0000  plane waves:    4261
 k-point 30 :  -0.3750 0.3750 0.0000  plane waves:    4218
 k-point 31 :  -0.2500 0.3750 0.0000  plane waves:    4251
 k-point 32 :  -0.1250 0.3750 0.0000  plane waves:    4257
 k-point 33 :   0.0000 0.5000 0.0000  plane waves:    4256
 k-point 34 :   0.1250 0.5000 0.0000  plane waves:    4257
 k-point 35 :   0.2500 0.5000 0.0000  plane waves:    4268
 k-point 36 :   0.3750 0.5000 0.0000  plane waves:    4265
 k-point 37 :   0.5000 0.5000 0.0000  plane waves:    4260
 k-point 38 :  -0.3750 0.5000 0.0000  plane waves:    4265
 k-point 39 :  -0.2500 0.5000 0.0000  plane waves:    4268
 k-point 40 :  -0.1250 0.5000 0.0000  plane waves:    4257
 k-point 41 :  -0.0000-0.3750 0.0000  plane waves:    4218
 k-point 42 :   0.1250-0.3750 0.0000  plane waves:    4257
 k-point 43 :   0.2500-0.3750 0.0000  plane waves:    4251
 k-point 44 :   0.3750-0.3750 0.0000  plane waves:    4218
 k-point 45 :   0.5000-0.3750 0.0000  plane waves:    4261
 k-point 46 :  -0.3750-0.3750 0.0000  plane waves:    4282
 k-point 47 :  -0.2500-0.3750 0.0000  plane waves:    4282
 k-point 48 :  -0.1250-0.3750 0.0000  plane waves:    4259
 k-point 49 :  -0.0000-0.2500 0.0000  plane waves:    4228
 k-point 50 :   0.1250-0.2500 0.0000  plane waves:    4225
 k-point 51 :   0.2500-0.2500 0.0000  plane waves:    4232
 k-point 52 :   0.3750-0.2500 0.0000  plane waves:    4251
 k-point 53 :   0.5000-0.2500 0.0000  plane waves:    4262
 k-point 54 :  -0.3750-0.2500 0.0000  plane waves:    4280
 k-point 55 :  -0.2500-0.2500 0.0000  plane waves:    4262
 k-point 56 :  -0.1250-0.2500 0.0000  plane waves:    4251
 k-point 57 :  -0.0000-0.1250 0.0000  plane waves:    4189
 k-point 58 :   0.1250-0.1250 0.0000  plane waves:    4189
 k-point 59 :   0.2500-0.1250 0.0000  plane waves:    4227
 k-point 60 :   0.3750-0.1250 0.0000  plane waves:    4255
 k-point 61 :   0.5000-0.1250 0.0000  plane waves:    4259
 k-point 62 :  -0.3750-0.1250 0.0000  plane waves:    4257
 k-point 63 :  -0.2500-0.1250 0.0000  plane waves:    4257
 k-point 64 :  -0.1250-0.1250 0.0000  plane waves:    4228

 maximum and minimum number of plane-waves per node :      4282     4187

 maximum number of plane-waves:      4282
 maximum index in each direction: 
   IXMAX=    6   IYMAX=    6   IZMAX=   32
   IXMIN=   -6   IYMIN=   -6   IZMIN=  -32


 serial   3D FFT for wavefunctions
 parallel 3D FFT for charge:
    minimum data exchange during FFTs selected (reduces bandwidth)


 total amount of memory used by VASP MPI-rank0   232806. kBytes
=======================================================================

   base      :      30000. kBytes
   nonl-proj :     118662. kBytes
   fftplans  :      11208. kBytes
   grid      :      23989. kBytes
   one-center:         62. kBytes
   wavefun   :      48885. kBytes
 
     INWAV:  cpu time    0.0000: real time    0.0000
 Broyden mixing: mesh for mixing (old mesh)
   NGX = 11   NGY = 11   NGZ = 65
  (NGX  = 48   NGY  = 48   NGZ  =280)
  gives a total of   7865 points

 initial charge density was supplied:
 charge density of overlapping atoms calculated
 number of electron      34.0000000 magnetization 
 keeping initial charge density in first step


--------------------------------------------------------------------------------------------------------


 Maximum index for augmentation-charges        10094 (set IRDMAX)


--------------------------------------------------------------------------------------------------------


 First call to EWALD:  gamma=   0.288
 Maximum number of real-space cells 5x 5x 1
 Maximum number of reciprocal cells 2x 2x 8

    FEWALD:  cpu time    0.0018: real time    0.0018


--------------------------------------- Iteration      1(   1)  ---------------------------------------


    POTLOK:  cpu time    0.3336: real time    0.3336
    SETDIJ:  cpu time    0.0098: real time    0.0098
     EDDAV:  cpu time    3.8549: real time    3.8551
       DOS:  cpu time    0.0010: real time    0.0010
    --------------------------------------------
      LOOP:  cpu time    4.1993: real time    4.1996

 eigenvalue-minimisations  :  2816
 total energy-change (2. order) : 0.2452033E+03  (-0.1155863E+04)
 number of electron      34.0000000 magnetization 
 augmentation part       34.0000000 magnetization 

 DIPCOR: dipole corrections for dipol
 direction  3 min pos   207,
 dipolmoment           0.000000      0.000000     -0.000030 electrons x Angstroem
 Tr[quadrupol]       -80.893043

 energy correction for charged system         0.000000 eV
 dipol+quadrupol energy correction           -0.000000 eV
 added-field ion interaction          0.000624 eV  (added to PSCEN)


 Free energy of the ion-electron system (eV)
  ---------------------------------------------------
  alpha Z        PSCENC =        41.51488309
  Ewald energy   TEWEN  =      5855.38151284
  -Hartree energ DENC   =     -8042.06780778
  -exchange      EXHF   =         0.00000000
  -V(xc)+E(xc)   XCENC  =        37.03136063
  PAW double counting   =      2012.60260865    -1949.97488812
  entropy T*S    EENTRO =        -0.01013408
  eigenvalues    EBANDS =        54.33930738
  atomic energy  EATOM  =      2236.38650011
  Solvation  Ediel_sol  =         0.00000000
  ---------------------------------------------------
  free energy    TOTEN  =       245.20334271 eV

  energy without entropy =      245.21347679  energy(sigma->0) =      245.20840975


--------------------------------------------------------------------------------------------------------




--------------------------------------- Iteration      1(   2)  ---------------------------------------


     EDDAV:  cpu time    5.4194: real time    5.4200
       DOS:  cpu time    0.0010: real time    0.0010
    --------------------------------------------
      LOOP:  cpu time    5.4204: real time    5.4210

 eigenvalue-minimisations  :  4210
 total energy-change (2. order) :-0.2397851E+03  (-0.2286886E+03)
 number of electron      34.0000000 magnetization 
 augmentation part       34.0000000 magnetization 

 DIPCOR: dipole corrections for dipol
 direction  3 min pos   207,
 dipolmoment           0.000000      0.000000     -0.000030 electrons x Angstroem
 Tr[quadrupol]       -80.893043

 energy correction for charged system         0.000000 eV
 dipol+quadrupol energy correction           -0.000000 eV
 added-field ion interaction          0.000624 eV  (added to PSCEN)


 Free energy of the ion-electron system (eV)
  ---------------------------------------------------
  alpha Z        PSCENC =        41.51488309
  Ewald energy   TEWEN  =      5855.38151284
  -Hartree energ DENC   =     -8042.06780778
  -exchange      EXHF   =         0.00000000
  -V(xc)+E(xc)   XCENC  =        37.03136063
  PAW double counting   =      2012.60260865    -1949.97488812
  entropy T*S    EENTRO =        -0.00004845
  eigenvalues    EBANDS =      -185.45585151
  atomic energy  EATOM  =      2236.38650011
  Solvation  Ediel_sol  =         0.00000000
  ---------------------------------------------------
  free energy    TOTEN  =         5.41826945 eV

  energy without entropy =        5.41831791  energy(sigma->0) =        5.41829368


--------------------------------------------------------------------------------------------------------




--------------------------------------- Iteration      1(   3)  ---------------------------------------


     EDDAV:  cpu time    4.5698: real time    4.5701
       DOS:  cpu time    0.0007: real time    0.0007
    --------------------------------------------
      LOOP:  cpu time    4.5705: real time    4.5708

 eigenvalue-minimisations  :  3404
 total energy-change (2. order) :-0.2239418E+02  (-0.2204294E+02)
 number of electron      34.0000000 magnetization 
 augmentation part       34.0000000 magnetization 

 DIPCOR: dipole corrections for dipol
 direction  3 min pos   207,
 dipolmoment           0.000000      0.000000     -0.000030 electrons x Angstroem
 Tr[quadrupol]       -80.893043

 energy correction for charged system         0.000000 eV
 dipol+quadrupol energy correction           -0.000000 eV
 added-field ion interaction          0.000624 eV  (added to PSCEN)


 Free energy of the ion-electron system (eV)
  ---------------------------------------------------
  alpha Z        PSCENC =        41.51488309
  Ewald energy   TEWEN  =      5855.38151284
  -Hartree energ DENC   =     -8042.06780778
  -exchange      EXHF   =         0.00000000
  -V(xc)+E(xc)   XCENC  =        37.03136063
  PAW double counting   =      2012.60260865    -1949.97488812
  entropy T*S    EENTRO =        -0.00000000
  eigenvalues    EBANDS =      -207.85007562
  atomic energy  EATOM  =      2236.38650011
  Solvation  Ediel_sol  =         0.00000000
  ---------------------------------------------------
  free energy    TOTEN  =       -16.97590620 eV

  energy without entropy =      -16.97590620  energy(sigma->0) =      -16.97590620


--------------------------------------------------------------------------------------------------------




--------------------------------------- Iteration      1(   4)  ---------------------------------------


     EDDAV:  cpu time    4.7290: real time    4.7293
       DOS:  cpu time    0.0007: real time    0.0007
    --------------------------------------------
      LOOP:  cpu time    4.7296: real time    4.7300

 eigenvalue-minimisations  :  3492
 total energy-change (2. order) :-0.5003007E+00  (-0.4987422E+00)
 number of electron      34.0000000 magnetization 
 augmentation part       34.0000000 magnetization 

 DIPCOR: dipole corrections for dipol
 direction  3 min pos   207,
 dipolmoment           0.000000      0.000000     -0.000030 electrons x Angstroem
 Tr[quadrupol]       -80.893043

 energy correction for charged system         0.000000 eV
 dipol+quadrupol energy correction           -0.000000 eV
 added-field ion interaction          0.000624 eV  (added to PSCEN)


 Free energy of the ion-electron system (eV)
  ---------------------------------------------------
  alpha Z        PSCENC =        41.51488309
  Ewald energy   TEWEN  =      5855.38151284
  -Hartree energ DENC   =     -8042.06780778
  -exchange      EXHF   =         0.00000000
  -V(xc)+E(xc)   XCENC  =        37.03136063
  PAW double counting   =      2012.60260865    -1949.97488812
  entropy T*S    EENTRO =        -0.00000000
  eigenvalues    EBANDS =      -208.35037630
  atomic energy  EATOM  =      2236.38650011
  Solvation  Ediel_sol  =         0.00000000
  ---------------------------------------------------
  free energy    TOTEN  =       -17.47620688 eV

  energy without entropy =      -17.47620688  energy(sigma->0) =      -17.47620688


--------------------------------------------------------------------------------------------------------




--------------------------------------- Iteration      1(   5)  ---------------------------------------


     EDDAV:  cpu time    4.6191: real time    4.6194
       DOS:  cpu time    0.0006: real time    0.0006
    CHARGE:  cpu time    0.3032: real time    0.3033
    MIXING:  cpu time    0.0087: real time    0.0087
    --------------------------------------------
      LOOP:  cpu time    4.9316: real time    4.9320

 eigenvalue-minimisations  :  3446
 total energy-change (2. order) :-0.1274591E-01  (-0.1274149E-01)
 number of electron      34.0000001 magnetization 
 augmentation part        3.4198280 magnetization 

 DIPCOR: dipole corrections for dipol
 direction  3 min pos   207,
 dipolmoment           0.000000      0.000000     -0.000030 electrons x Angstroem
 Tr[quadrupol]       -80.893043

 energy correction for charged system         0.000000 eV
 dipol+quadrupol energy correction           -0.000000 eV
 added-field ion interaction          0.000624 eV  (added to PSCEN)


 Broyden mixing:
  rms(total) = 0.15421E+01    rms(broyden)= 0.15421E+01
  rms(prec ) = 0.15674E+01
  weight for this iteration     100.00

 Free energy of the ion-electron system (eV)
  ---------------------------------------------------
  alpha Z        PSCENC =        41.51488309
  Ewald energy   TEWEN  =      5855.38151284
  -Hartree energ DENC   =     -8042.06780778
  -exchange      EXHF   =         0.00000000
  -V(xc)+E(xc)   XCENC  =        37.03136063
  PAW double counting   =      2012.60260865    -1949.97488812
  entropy T*S    EENTRO =        -0.00000000
  eigenvalues    EBANDS =      -208.36312221
  atomic energy  EATOM  =      2236.38650011
  Solvation  Ediel_sol  =         0.00000000
  ---------------------------------------------------
  free energy    TOTEN  =       -17.48895279 eV

  energy without entropy =      -17.48895279  energy(sigma->0) =      -17.48895279


--------------------------------------------------------------------------------------------------------




--------------------------------------- Iteration      1(   6)  ---------------------------------------


    POTLOK:  cpu time    0.2881: real time    0.2881
    SETDIJ:  cpu time    0.0076: real time    0.0076
     EDDAV:  cpu time    4.5023: real time    4.5026
       DOS:  cpu time    0.0005: real time    0.0005
    CHARGE:  cpu time    0.3511: real time    0.3511
    MIXING:  cpu time    0.0105: real time    0.0105
    --------------------------------------------
      LOOP:  cpu time    5.1601: real time    5.1605

 eigenvalue-minimisations  :  3498
 total energy-change (2. order) : 0.8727488E+00  (-0.2455995E+00)
 number of electron      34.0000001 magnetization 
 augmentation part        3.8535477 magnetization 

 DIPCOR: dipole corrections for dipol
 direction  3 min pos   210,
 dipolmoment           0.000000      0.000000     -0.035518 electrons x Angstroem
 Tr[quadrupol]       -80.864860

 energy correction for charged system         0.000000 eV
 dipol+quadrupol energy correction           -0.000488 eV
 added-field ion interaction          0.528425 eV  (added to PSCEN)


 Broyden mixing:
  rms(total) = 0.86121E+00    rms(broyden)= 0.86119E+00
  rms(prec ) = 0.86597E+00
  weight for this iteration     100.00

 eigenvalues of (default mixing * dielectric matrix)
  average eigenvalue GAMMA=   1.8193
  1.8193

 Free energy of the ion-electron system (eV)
  ---------------------------------------------------
  alpha Z        PSCENC =        42.04219609
  Ewald energy   TEWEN  =      5855.38151284
  -Hartree energ DENC   =     -8026.13349469
  -exchange      EXHF   =         0.00000000
  -V(xc)+E(xc)   XCENC  =        36.72510168
  PAW double counting   =      2271.15370620    -2211.57057367
  entropy T*S    EENTRO =        -0.00000000
  eigenvalues    EBANDS =      -220.60115255
  atomic energy  EATOM  =      2236.38650011
  Solvation  Ediel_sol  =         0.00000000
  ---------------------------------------------------
  free energy    TOTEN  =       -16.61620400 eV

  energy without entropy =      -16.61620400  energy(sigma->0) =      -16.61620400


--------------------------------------------------------------------------------------------------------




--------------------------------------- Iteration      1(   7)  ---------------------------------------


    POTLOK:  cpu time    0.3116: real time    0.3117
    SETDIJ:  cpu time    0.0102: real time    0.0102
     EDDAV:  cpu time    4.4728: real time    4.4731
       DOS:  cpu time    0.0007: real time    0.0007
    CHARGE:  cpu time    0.3618: real time    0.3618
    MIXING:  cpu time    0.0109: real time    0.0109
    --------------------------------------------
      LOOP:  cpu time    5.1680: real time    5.1683

 eigenvalue-minimisations  :  3344
 total energy-change (2. order) : 0.4587514E-02  (-0.5607796E-01)
 number of electron      34.0000001 magnetization 
 augmentation part        3.8191693 magnetization 

 DIPCOR: dipole corrections for dipol
 direction  3 min pos   224,
 dipolmoment           0.000000      0.000000     -0.014357 electrons x Angstroem
 Tr[quadrupol]       -81.057304

 energy correction for charged system         0.000000 eV
 dipol+quadrupol energy correction           -0.000080 eV
 added-field ion interaction         -0.164188 eV  (added to PSCEN)


 Broyden mixing:
  rms(total) = 0.31416E+00    rms(broyden)= 0.31416E+00
  rms(prec ) = 0.33335E+00
  weight for this iteration     100.00

 eigenvalues of (default mixing * dielectric matrix)
  average eigenvalue GAMMA=   1.5581
  0.8340  2.2822

 Free energy of the ion-electron system (eV)
  ---------------------------------------------------
  alpha Z        PSCENC =        41.34999172
  Ewald energy   TEWEN  =      5855.38151284
  -Hartree energ DENC   =     -8030.79387721
  -exchange      EXHF   =         0.00000000
  -V(xc)+E(xc)   XCENC  =        36.64193184
  PAW double counting   =      2572.36564714    -2514.79851795
  entropy T*S    EENTRO =        -0.00000000
  eigenvalues    EBANDS =      -213.14480498
  atomic energy  EATOM  =      2236.38650011
  Solvation  Ediel_sol  =         0.00000000
  ---------------------------------------------------
  free energy    TOTEN  =       -16.61161649 eV

  energy without entropy =      -16.61161649  energy(sigma->0) =      -16.61161649


--------------------------------------------------------------------------------------------------------




--------------------------------------- Iteration      1(   8)  ---------------------------------------


    POTLOK:  cpu time    0.3117: real time    0.3117
    SETDIJ:  cpu time    0.0103: real time    0.0103
     EDDAV:  cpu time    4.7240: real time    4.7246
       DOS:  cpu time    0.0007: real time    0.0007
    CHARGE:  cpu time    0.3596: real time    0.3596
    MIXING:  cpu time    0.0111: real time    0.0111
    --------------------------------------------
      LOOP:  cpu time    5.4174: real time    5.4181

 eigenvalue-minimisations  :  3494
 total energy-change (2. order) :-0.5388273E-01  (-0.4313947E-01)
 number of electron      34.0000001 magnetization 
 augmentation part        3.8298663 magnetization 

 DIPCOR: dipole corrections for dipol
 direction  3 min pos   226,
 dipolmoment           0.000000      0.000000     -0.073101 electrons x Angstroem
 Tr[quadrupol]       -81.003264

 energy correction for charged system         0.000000 eV
 dipol+quadrupol energy correction           -0.002068 eV
 added-field ion interaction         -1.110799 eV  (added to PSCEN)


 Broyden mixing:
  rms(total) = 0.25091E+00    rms(broyden)= 0.25089E+00
  rms(prec ) = 0.30199E+00
  weight for this iteration     100.00

 eigenvalues of (default mixing * dielectric matrix)
  average eigenvalue GAMMA=   1.2609
  2.4233  0.9508  0.4086

 Free energy of the ion-electron system (eV)
  ---------------------------------------------------
  alpha Z        PSCENC =        40.40139239
  Ewald energy   TEWEN  =      5855.38151284
  -Hartree energ DENC   =     -8030.05383228
  -exchange      EXHF   =         0.00000000
  -V(xc)+E(xc)   XCENC  =        36.65606053
  PAW double counting   =      2689.54653215    -2632.66928332
  entropy T*S    EENTRO =        -0.00000000
  eigenvalues    EBANDS =      -212.31438164
  atomic energy  EATOM  =      2236.38650011
  Solvation  Ediel_sol  =         0.00000000
  ---------------------------------------------------
  free energy    TOTEN  =       -16.66549921 eV

  energy without entropy =      -16.66549921  energy(sigma->0) =      -16.66549921


--------------------------------------------------------------------------------------------------------




--------------------------------------- Iteration      1(   9)  ---------------------------------------


    POTLOK:  cpu time    0.3147: real time    0.3147
    SETDIJ:  cpu time    0.0157: real time    0.0157
     EDDAV:  cpu time    4.6545: real time    4.6550
       DOS:  cpu time    0.0007: real time    0.0007
    CHARGE:  cpu time    0.3675: real time    0.3675
    MIXING:  cpu time    0.0114: real time    0.0114
    --------------------------------------------
      LOOP:  cpu time    5.3645: real time    5.3650

 eigenvalue-minimisations  :  3470
 total energy-change (2. order) : 0.1018462E+00  (-0.1647270E-01)
 number of electron      34.0000001 magnetization 
 augmentation part        3.8558625 magnetization 

 DIPCOR: dipole corrections for dipol
 direction  3 min pos   214,
 dipolmoment           0.000000      0.000000     -0.025639 electrons x Angstroem
 Tr[quadrupol]       -81.076845

 energy correction for charged system         0.000000 eV
 dipol+quadrupol energy correction           -0.000254 eV
 added-field ion interaction          0.188685 eV  (added to PSCEN)


 Broyden mixing:
  rms(total) = 0.43050E-01    rms(broyden)= 0.43025E-01
  rms(prec ) = 0.47351E-01
  weight for this iteration     100.00

 eigenvalues of (default mixing * dielectric matrix)
  average eigenvalue GAMMA=   1.2809
  2.4977  1.3560  0.8787  0.3911

 Free energy of the ion-electron system (eV)
  ---------------------------------------------------
  alpha Z        PSCENC =        41.70268997
  Ewald energy   TEWEN  =      5855.38151284
  -Hartree energ DENC   =     -8029.12484448
  -exchange      EXHF   =         0.00000000
  -V(xc)+E(xc)   XCENC  =        36.66489967
  PAW double counting   =      2715.42956758    -2658.68018528
  entropy T*S    EENTRO =        -0.00000000
  eigenvalues    EBANDS =      -214.32379346
  atomic energy  EATOM  =      2236.38650011
  Solvation  Ediel_sol  =         0.00000000
  ---------------------------------------------------
  free energy    TOTEN  =       -16.56365306 eV

  energy without entropy =      -16.56365306  energy(sigma->0) =      -16.56365306


--------------------------------------------------------------------------------------------------------




--------------------------------------- Iteration      1(  10)  ---------------------------------------


    POTLOK:  cpu time    0.2912: real time    0.2913
    SETDIJ:  cpu time    0.0107: real time    0.0107
     EDDAV:  cpu time    4.2317: real time    4.2321
       DOS:  cpu time    0.0007: real time    0.0007
    CHARGE:  cpu time    0.3644: real time    0.3645
    MIXING:  cpu time    0.0114: real time    0.0114
    --------------------------------------------
      LOOP:  cpu time    4.9102: real time    4.9106

 eigenvalue-minimisations  :  3204
 total energy-change (2. order) : 0.2162294E-02  (-0.2327723E-02)
 number of electron      34.0000001 magnetization 
 augmentation part        3.8536104 magnetization 

 DIPCOR: dipole corrections for dipol
 direction  3 min pos   208,
 dipolmoment           0.000000      0.000000     -0.033547 electrons x Angstroem
 Tr[quadrupol]       -81.106560

 energy correction for charged system         0.000000 eV
 dipol+quadrupol energy correction           -0.000436 eV
 added-field ion interaction          0.625212 eV  (added to PSCEN)


 Broyden mixing:
  rms(total) = 0.17810E-01    rms(broyden)= 0.17809E-01
  rms(prec ) = 0.20430E-01
  weight for this iteration     100.00

 eigenvalues of (default mixing * dielectric matrix)
  average eigenvalue GAMMA=   1.2243
  2.4742  1.4961  0.8867  0.8867  0.3778

 Free energy of the ion-electron system (eV)
  ---------------------------------------------------
  alpha Z        PSCENC =        42.13903613
  Ewald energy   TEWEN  =      5855.38151284
  -Hartree energ DENC   =     -8029.42273332
  -exchange      EXHF   =         0.00000000
  -V(xc)+E(xc)   XCENC  =        36.70081014
  PAW double counting   =      2724.53531650    -2667.75721427
  entropy T*S    EENTRO =        -0.00000000
  eigenvalues    EBANDS =      -214.52471889
  atomic energy  EATOM  =      2236.38650011
  Solvation  Ediel_sol  =         0.00000000
  ---------------------------------------------------
  free energy    TOTEN  =       -16.56149076 eV

  energy without entropy =      -16.56149076  energy(sigma->0) =      -16.56149076


--------------------------------------------------------------------------------------------------------




--------------------------------------- Iteration      1(  11)  ---------------------------------------


    POTLOK:  cpu time    0.3060: real time    0.3060
    SETDIJ:  cpu time    0.0125: real time    0.0125
     EDDAV:  cpu time    4.7116: real time    4.7119
       DOS:  cpu time    0.0007: real time    0.0007
    CHARGE:  cpu time    0.3651: real time    0.3651
    MIXING:  cpu time    0.0139: real time    0.0139
    --------------------------------------------
      LOOP:  cpu time    5.4097: real time    5.4101

 eigenvalue-minimisations  :  3464
 total energy-change (2. order) : 0.7980179E-04  (-0.2917176E-03)
 number of electron      34.0000001 magnetization 
 augmentation part        3.8500096 magnetization 

 DIPCOR: dipole corrections for dipol
 direction  3 min pos   220,
 dipolmoment           0.000000      0.000000     -0.037344 electrons x Angstroem
 Tr[quadrupol]       -81.052526

 energy correction for charged system         0.000000 eV
 dipol+quadrupol energy correction           -0.000540 eV
 added-field ion interaction         -0.146317 eV  (added to PSCEN)


 Broyden mixing:
  rms(total) = 0.97628E-02    rms(broyden)= 0.97621E-02
  rms(prec ) = 0.10849E-01
  weight for this iteration     100.00

 eigenvalues of (default mixing * dielectric matrix)
  average eigenvalue GAMMA=   1.1698
  2.4471  1.7342  0.3800  0.9152  0.7712  0.7712

 Free energy of the ion-electron system (eV)
  ---------------------------------------------------
  alpha Z        PSCENC =        41.36740225
  Ewald energy   TEWEN  =      5855.38151284
  -Hartree energ DENC   =     -8029.78833928
  -exchange      EXHF   =         0.00000000
  -V(xc)+E(xc)   XCENC  =        36.70954709
  PAW double counting   =      2722.80059321    -2666.00189687
  entropy T*S    EENTRO =        -0.00000000
  eigenvalues    EBANDS =      -213.41673029
  atomic energy  EATOM  =      2236.38650011
  Solvation  Ediel_sol  =         0.00000000
  ---------------------------------------------------
  free energy    TOTEN  =       -16.56141096 eV

  energy without entropy =      -16.56141096  energy(sigma->0) =      -16.56141096


--------------------------------------------------------------------------------------------------------




--------------------------------------- Iteration      1(  12)  ---------------------------------------


    POTLOK:  cpu time    0.2949: real time    0.2950
    SETDIJ:  cpu time    0.0070: real time    0.0070
     EDDAV:  cpu time    5.6406: real time    5.6410
       DOS:  cpu time    0.0007: real time    0.0007
    CHARGE:  cpu time    0.3444: real time    0.3445
    MIXING:  cpu time    0.0095: real time    0.0095
    --------------------------------------------
      LOOP:  cpu time    6.2972: real time    6.2977

 eigenvalue-minimisations  :  4518
 total energy-change (2. order) : 0.3510701E-04  (-0.1651162E-04)
 number of electron      34.0000001 magnetization 
 augmentation part        3.8493041 magnetization 

 DIPCOR: dipole corrections for dipol
 direction  3 min pos   226,
 dipolmoment           0.000000      0.000000     -0.038345 electrons x Angstroem
 Tr[quadrupol]       -81.024771

 energy correction for charged system         0.000000 eV
 dipol+quadrupol energy correction           -0.000569 eV
 added-field ion interaction         -0.582663 eV  (added to PSCEN)


 Broyden mixing:
  rms(total) = 0.59607E-02    rms(broyden)= 0.59606E-02
  rms(prec ) = 0.66920E-02
  weight for this iteration     100.00

 eigenvalues of (default mixing * dielectric matrix)
  average eigenvalue GAMMA=   1.2864
  2.2640  2.2640  1.4997  0.3795  0.8981  0.8981  0.8018

 Free energy of the ion-electron system (eV)
  ---------------------------------------------------
  alpha Z        PSCENC =        40.93102767
  Ewald energy   TEWEN  =      5855.38151284
  -Hartree energ DENC   =     -8029.93236781
  -exchange      EXHF   =         0.00000000
  -V(xc)+E(xc)   XCENC  =        36.71217313
  PAW double counting   =      2721.21232042    -2664.40684594
  entropy T*S    EENTRO =        -0.00000000
  eigenvalues    EBANDS =      -212.84569626
  atomic energy  EATOM  =      2236.38650011
  Solvation  Ediel_sol  =         0.00000000
  ---------------------------------------------------
  free energy    TOTEN  =       -16.56137585 eV

  energy without entropy =      -16.56137585  energy(sigma->0) =      -16.56137585


--------------------------------------------------------------------------------------------------------




--------------------------------------- Iteration      1(  13)  ---------------------------------------


    POTLOK:  cpu time    0.2870: real time    0.2871
    SETDIJ:  cpu time    0.0070: real time    0.0070
     EDDAV:  cpu time    4.9975: real time    4.9978
       DOS:  cpu time    0.0007: real time    0.0007
    CHARGE:  cpu time    0.3625: real time    0.3625
    MIXING:  cpu time    0.0118: real time    0.0118
    --------------------------------------------
      LOOP:  cpu time    5.6666: real time    5.6670

 eigenvalue-minimisations  :  3966
 total energy-change (2. order) :-0.1337721E-04  (-0.2012858E-04)
 number of electron      34.0000001 magnetization 
 augmentation part        3.8500734 magnetization 

 DIPCOR: dipole corrections for dipol
 direction  3 min pos   229,
 dipolmoment           0.000000      0.000000     -0.036981 electrons x Angstroem
 Tr[quadrupol]       -81.019967

 energy correction for charged system         0.000000 eV
 dipol+quadrupol energy correction           -0.000529 eV
 added-field ion interaction         -0.770469 eV  (added to PSCEN)


 Broyden mixing:
  rms(total) = 0.23381E-02    rms(broyden)= 0.23376E-02
  rms(prec ) = 0.31554E-02
  weight for this iteration     100.00

 eigenvalues of (default mixing * dielectric matrix)
  average eigenvalue GAMMA=   1.3022
  2.5472  2.4871  0.3794  1.2644  1.0354  0.9281  0.8881  0.8881

 Free energy of the ion-electron system (eV)
  ---------------------------------------------------
  alpha Z        PSCENC =        40.74326153
  Ewald energy   TEWEN  =      5855.38151284
  -Hartree energ DENC   =     -8030.24156111
  -exchange      EXHF   =         0.00000000
  -V(xc)+E(xc)   XCENC  =        36.71588349
  PAW double counting   =      2717.04061953    -2660.23138710
  entropy T*S    EENTRO =        -0.00000000
  eigenvalues    EBANDS =      -212.35621852
  atomic energy  EATOM  =      2236.38650011
  Solvation  Ediel_sol  =         0.00000000
  ---------------------------------------------------
  free energy    TOTEN  =       -16.56138923 eV

  energy without entropy =      -16.56138923  energy(sigma->0) =      -16.56138923


--------------------------------------------------------------------------------------------------------




--------------------------------------- Iteration      1(  14)  ---------------------------------------


    POTLOK:  cpu time    0.3118: real time    0.3119
    SETDIJ:  cpu time    0.0151: real time    0.0151
     EDDAV:  cpu time    4.4889: real time    4.4892
       DOS:  cpu time    0.0007: real time    0.0007
    CHARGE:  cpu time    0.3633: real time    0.3633
    MIXING:  cpu time    0.0121: real time    0.0121
    --------------------------------------------
      LOOP:  cpu time    5.1919: real time    5.1923

 eigenvalue-minimisations  :  3428
 total energy-change (2. order) :-0.1134834E-04  (-0.8212991E-05)
 number of electron      34.0000001 magnetization 
 augmentation part        3.8497347 magnetization 

 DIPCOR: dipole corrections for dipol
 direction  3 min pos   231,
 dipolmoment           0.000000      0.000000     -0.037801 electrons x Angstroem
 Tr[quadrupol]       -81.012220

 energy correction for charged system         0.000000 eV
 dipol+quadrupol energy correction           -0.000553 eV
 added-field ion interaction         -0.929642 eV  (added to PSCEN)


 Broyden mixing:
  rms(total) = 0.21300E-02    rms(broyden)= 0.21300E-02
  rms(prec ) = 0.22636E-02
  weight for this iteration     100.00

 eigenvalues of (default mixing * dielectric matrix)
  average eigenvalue GAMMA=   1.2679
  2.5395  2.5395  1.3519  0.9556  0.9556  1.0625  1.0064  0.3794  0.6208

 Free energy of the ion-electron system (eV)
  ---------------------------------------------------
  alpha Z        PSCENC =        40.58406468
  Ewald energy   TEWEN  =      5855.38151284
  -Hartree energ DENC   =     -8030.39783545
  -exchange      EXHF   =         0.00000000
  -V(xc)+E(xc)   XCENC  =        36.71830604
  PAW double counting   =      2716.73974076    -2659.92969399
  entropy T*S    EENTRO =        -0.00000000
  eigenvalues    EBANDS =      -212.04399556
  atomic energy  EATOM  =      2236.38650011
  Solvation  Ediel_sol  =         0.00000000
  ---------------------------------------------------
  free energy    TOTEN  =       -16.56140058 eV

  energy without entropy =      -16.56140058  energy(sigma->0) =      -16.56140058


--------------------------------------------------------------------------------------------------------




--------------------------------------- Iteration      1(  15)  ---------------------------------------


    POTLOK:  cpu time    0.3056: real time    0.3057
    SETDIJ:  cpu time    0.0112: real time    0.0112
     EDDAV:  cpu time    4.5108: real time    4.5113
       DOS:  cpu time    0.0007: real time    0.0007
    CHARGE:  cpu time    0.3631: real time    0.3632
    MIXING:  cpu time    0.0123: real time    0.0123
    --------------------------------------------
      LOOP:  cpu time    5.2037: real time    5.2042

 eigenvalue-minimisations  :  3236
 total energy-change (2. order) :-0.1388770E-04  (-0.1126512E-05)
 number of electron      34.0000001 magnetization 
 augmentation part        3.8498379 magnetization 

 DIPCOR: dipole corrections for dipol
 direction  3 min pos   232,
 dipolmoment           0.000000      0.000000     -0.037700 electrons x Angstroem
 Tr[quadrupol]       -81.008681

 energy correction for charged system         0.000000 eV
 dipol+quadrupol energy correction           -0.000550 eV
 added-field ion interaction         -0.998033 eV  (added to PSCEN)


 Broyden mixing:
  rms(total) = 0.11562E-02    rms(broyden)= 0.11561E-02
  rms(prec ) = 0.13018E-02
  weight for this iteration     100.00

 eigenvalues of (default mixing * dielectric matrix)
  average eigenvalue GAMMA=   1.3033
  2.5833  2.0991  2.0991  0.3794  1.2428  1.0281  1.0281  0.9227  0.9227  0.7277

 Free energy of the ion-electron system (eV)
  ---------------------------------------------------
  alpha Z        PSCENC =        40.51567623
  Ewald energy   TEWEN  =      5855.38151284
  -Hartree energ DENC   =     -8030.45474660
  -exchange      EXHF   =         0.00000000
  -V(xc)+E(xc)   XCENC  =        36.71890920
  PAW double counting   =      2716.58501460    -2659.77463695
  entropy T*S    EENTRO =        -0.00000000
  eigenvalues    EBANDS =      -211.91964390
  atomic energy  EATOM  =      2236.38650011
  Solvation  Ediel_sol  =         0.00000000
  ---------------------------------------------------
  free energy    TOTEN  =       -16.56141447 eV

  energy without entropy =      -16.56141447  energy(sigma->0) =      -16.56141447


--------------------------------------------------------------------------------------------------------




--------------------------------------- Iteration      1(  16)  ---------------------------------------


    POTLOK:  cpu time    0.3038: real time    0.3038
    SETDIJ:  cpu time    0.0098: real time    0.0098
     EDDAV:  cpu time    4.3701: real time    4.3704
       DOS:  cpu time    0.0005: real time    0.0005
    CHARGE:  cpu time    0.3114: real time    0.3114
    MIXING:  cpu time    0.0099: real time    0.0099
    --------------------------------------------
      LOOP:  cpu time    5.0054: real time    5.0058

 eigenvalue-minimisations  :  3218
 total energy-change (2. order) :-0.2226301E-04  (-0.2828067E-06)
 number of electron      34.0000001 magnetization 
 augmentation part        3.8498343 magnetization 

 DIPCOR: dipole corrections for dipol
 direction  3 min pos   232,
 dipolmoment           0.000000      0.000000     -0.037408 electrons x Angstroem
 Tr[quadrupol]       -81.011293

 energy correction for charged system         0.000000 eV
 dipol+quadrupol energy correction           -0.000542 eV
 added-field ion interaction         -0.990302 eV  (added to PSCEN)


 Broyden mixing:
  rms(total) = 0.40522E-03    rms(broyden)= 0.40520E-03
  rms(prec ) = 0.60492E-03
  weight for this iteration     100.00

 eigenvalues of (default mixing * dielectric matrix)
  average eigenvalue GAMMA=   1.3357
  2.6388  2.6388  1.6632  1.6632  0.3794  1.0420  1.0420  0.9819  0.9819  0.9781
  0.6830

 Free energy of the ion-electron system (eV)
  ---------------------------------------------------
  alpha Z        PSCENC =        40.52341601
  Ewald energy   TEWEN  =      5855.38151284
  -Hartree energ DENC   =     -8030.54396808
  -exchange      EXHF   =         0.00000000
  -V(xc)+E(xc)   XCENC  =        36.71946750
  PAW double counting   =      2716.75638634    -2659.94729141
  entropy T*S    EENTRO =        -0.00000000
  eigenvalues    EBANDS =      -211.83746004
  atomic energy  EATOM  =      2236.38650011
  Solvation  Ediel_sol  =         0.00000000
  ---------------------------------------------------
  free energy    TOTEN  =       -16.56143673 eV

  energy without entropy =      -16.56143673  energy(sigma->0) =      -16.56143673


--------------------------------------------------------------------------------------------------------




--------------------------------------- Iteration      1(  17)  ---------------------------------------


    POTLOK:  cpu time    0.2854: real time    0.2854
    SETDIJ:  cpu time    0.0139: real time    0.0139
     EDDAV:  cpu time    4.5545: real time    4.5548
       DOS:  cpu time    0.0007: real time    0.0007
    CHARGE:  cpu time    0.3659: real time    0.3660
    MIXING:  cpu time    0.0127: real time    0.0127
    --------------------------------------------
      LOOP:  cpu time    5.2331: real time    5.2335

 eigenvalue-minimisations  :  3446
 total energy-change (2. order) :-0.2121319E-04  (-0.1793339E-06)
 number of electron      34.0000001 magnetization 
 augmentation part        3.8498240 magnetization 

 DIPCOR: dipole corrections for dipol
 direction  3 min pos   232,
 dipolmoment           0.000000      0.000000     -0.037088 electrons x Angstroem
 Tr[quadrupol]       -81.014472

 energy correction for charged system         0.000000 eV
 dipol+quadrupol energy correction           -0.000532 eV
[...]
  band No.  band energies     occupation 
      1     -17.4377      2.00000
      2     -17.3281      2.00000
      3      -7.8093      2.00000
      4      -7.1370      2.00000
      5      -6.8686      2.00000
      6      -6.6725      2.00000
      7      -6.3466      2.00000
      8      -5.6619      2.00000
      9      -5.1814      2.00000
     10      -4.8323      2.00000
     11      -4.4801      2.00000
     12      -3.1646      2.00000
     13      -3.0479      2.00000
     14      -3.0209      2.00000
     15      -2.3769      2.00000
     16      -2.3498      2.00000
     17      -2.0461      2.00000
     18      -0.3094      0.00000
     19       0.1769      0.00000
     20       3.4667      0.00000
     21       3.9050      0.00000
     22       4.4401      0.00000

 k-point    52 :       0.3750   -0.2500    0.0000
  band No.  band energies     occupation 
      1     -17.3313      2.00000
      2     -17.2061      2.00000
      3      -7.7606      2.00000
      4      -7.2351      2.00000
      5      -6.7332      2.00000
      6      -6.5610      2.00000
      7      -6.3811      2.00000
      8      -5.8357      2.00000
      9      -5.2525      2.00000
     10      -5.0025      2.00000
     11      -4.1352      2.00000
     12      -3.6977      2.00000
     13      -3.0964      2.00000
     14      -2.8286      2.00000
     15      -2.5793      2.00000
     16      -2.4804      2.00000
     17      -2.2289      2.00000
     18      -0.4543      0.00000
     19       0.8142      0.00000
     20       3.2632      0.00000
     21       4.4421      0.00000
     22       4.8650      0.00000

 k-point    53 :       0.5000   -0.2500    0.0000
  band No.  band energies     occupation 
      1     -17.2307      2.00000
      2     -17.0728      2.00000
      3      -7.6037      2.00000
      4      -7.1337      2.00000
      5      -7.0963      2.00000
      6      -6.3874      2.00000
      7      -6.2741      2.00000
      8      -5.9197      2.00000
      9      -5.4119      2.00000
     10      -5.2085      2.00000
     11      -3.8825      2.00000
     12      -3.5415      2.00000
     13      -3.3326      2.00000
     14      -3.1290      2.00000
     15      -3.0526      2.00000
     16      -2.4733      2.00000
     17      -2.1242      2.00000
     18      -0.3988      0.00000
     19       1.2068      0.00000
     20       2.9270      0.00000
     21       4.5041      0.00000
     22       5.4934      0.00000

 k-point    54 :      -0.3750   -0.2500    0.0000
  band No.  band energies     occupation 
      1     -17.1899      2.00000
      2     -17.0158      2.00000
      3      -7.3447      2.00000
      4      -7.3355      2.00000
      5      -6.9396      2.00000
      6      -6.6824      2.00000
      7      -6.4664      2.00000
      8      -5.7214      2.00000
      9      -5.4112      2.00000
     10      -4.8517      2.00000
     11      -4.3266      2.00000
     12      -3.7819      2.00000
     13      -3.4710      2.00000
     14      -3.1232      2.00000
     15      -2.7632      2.00000
     16      -2.4548      2.00000
     17      -2.1900      2.00000
     18      -0.2665      0.00000
     19       1.3787      0.00000
     20       2.3080      0.00000
     21       5.0524      0.00000
     22       5.4484      0.00000

 k-point    55 :      -0.2500   -0.2500    0.0000
  band No.  band energies     occupation 
      1     -17.2316      2.00000
      2     -17.0741      2.00000
      3      -7.6007      2.00000
      4      -7.1308      2.00000
      5      -7.0973      2.00000
      6      -6.3859      2.00000
      7      -6.2722      2.00000
      8      -5.9207      2.00000
      9      -5.4135      2.00000
     10      -5.2093      2.00000
     11      -3.8859      2.00000
     12      -3.5399      2.00000
     13      -3.3391      2.00000
     14      -3.1338      2.00000
     15      -3.0520      2.00000
     16      -2.4709      2.00000
     17      -2.1245      2.00000
     18      -0.3982      0.00000
     19       1.2038      0.00000
     20       2.9284      0.00000
     21       4.5093      0.00000
     22       5.4985      0.00000

 k-point    56 :      -0.1250   -0.2500    0.0000
  band No.  band energies     occupation 
      1     -17.3326      2.00000
      2     -17.2078      2.00000
      3      -7.7612      2.00000
      4      -7.2362      2.00000
      5      -6.7297      2.00000
      6      -6.5576      2.00000
      7      -6.3800      2.00000
      8      -5.8321      2.00000
      9      -5.2525      2.00000
     10      -5.0060      2.00000
     11      -4.1348      2.00000
     12      -3.7006      2.00000
     13      -3.0985      2.00000
     14      -2.8321      2.00000
     15      -2.5806      2.00000
     16      -2.4807      2.00000
     17      -2.2289      2.00000
     18      -0.4535      0.00000
     19       0.8082      0.00000
     20       3.2635      0.00000
     21       4.4410      0.00000
     22       4.8649      0.00000

 k-point    57 :      -0.0000   -0.1250    0.0000
  band No.  band energies     occupation 
      1     -17.6035      2.00000
      2     -17.4757      2.00000
      3      -8.0074      2.00000
      4      -7.0610      2.00000
      5      -6.9665      2.00000
      6      -6.6758      2.00000
      7      -6.2665      2.00000
      8      -5.8386      2.00000
      9      -4.8593      2.00000
     10      -4.7715      2.00000
     11      -4.0033      2.00000
     12      -3.0755      2.00000
     13      -2.7309      2.00000
     14      -2.5071      2.00000
     15      -2.4923      2.00000
     16      -2.4343      2.00000
     17      -2.0921      2.00000
     18      -0.4071      0.00000
     19      -0.3218      0.00000
     20       2.6800      0.00000
     21       3.4784      0.00000
     22       4.0764      0.00000

 k-point    58 :       0.1250   -0.1250    0.0000
  band No.  band energies     occupation 
      1     -17.6032      2.00000
      2     -17.4754      2.00000
      3      -8.0066      2.00000
      4      -7.0596      2.00000
      5      -6.9689      2.00000
      6      -6.6757      2.00000
      7      -6.2616      2.00000
      8      -5.8457      2.00000
      9      -4.8537      2.00000
     10      -4.7791      2.00000
     11      -4.0004      2.00000
     12      -3.0739      2.00000
     13      -2.7341      2.00000
     14      -2.5053      2.00000
     15      -2.4952      2.00000
     16      -2.4332      2.00000
     17      -2.0887      2.00000
     18      -0.4076      0.00000
     19      -0.3225      0.00000
     20       2.6812      0.00000
     21       3.4792      0.00000
     22       4.0771      0.00000

 k-point    59 :       0.2500   -0.1250    0.0000
  band No.  band energies     occupation 
      1     -17.4854      2.00000
      2     -17.3754      2.00000
      3      -7.8274      2.00000
      4      -7.1223      2.00000
      5      -6.9529      2.00000
      6      -6.4838      2.00000
      7      -6.3805      2.00000
      8      -5.8301      2.00000
      9      -5.0479      2.00000
     10      -4.9564      2.00000
     11      -4.3669      2.00000
     12      -3.1723      2.00000
     13      -2.9070      2.00000
     14      -2.6127      2.00000
     15      -2.5095      2.00000
     16      -2.4227      2.00000
     17      -2.0706      2.00000
     18      -0.4110      0.00000
     19       0.0310      0.00000
     20       3.5412      0.00000
     21       3.9128      0.00000
     22       4.4173      0.00000

 k-point    60 :       0.3750   -0.1250    0.0000
  band No.  band energies     occupation 
      1     -17.3325      2.00000
      2     -17.2077      2.00000
      3      -7.7645      2.00000
      4      -7.2373      2.00000
      5      -6.7311      2.00000
      6      -6.5585      2.00000
      7      -6.3784      2.00000
      8      -5.8286      2.00000
      9      -5.2481      2.00000
     10      -5.0081      2.00000
     11      -4.1352      2.00000
     12      -3.7000      2.00000
     13      -3.0923      2.00000
     14      -2.8348      2.00000
     15      -2.5784      2.00000
     16      -2.4821      2.00000
     17      -2.2297      2.00000
     18      -0.4566      0.00000
     19       0.8108      0.00000
     20       3.2572      0.00000
     21       4.4446      0.00000
     22       4.8665      0.00000

 k-point    61 :       0.5000   -0.1250    0.0000
  band No.  band energies     occupation 
      1     -17.2304      2.00000
      2     -17.0737      2.00000
      3      -7.7791      2.00000
      4      -7.4611      2.00000
      5      -6.6954      2.00000
      6      -6.4959      2.00000
      7      -6.3050      2.00000
      8      -5.9596      2.00000
      9      -5.1476      2.00000
     10      -4.7381      2.00000
     11      -3.9319      2.00000
     12      -3.4931      2.00000
     13      -3.3607      2.00000
     14      -3.1351      2.00000
     15      -3.0471      2.00000
     16      -2.5855      2.00000
     17      -2.4137      2.00000
     18      -0.3722      0.00000
     19       1.1535      0.00000
     20       2.5483      0.00000
     21       4.8452      0.00000
     22       5.1365      0.00000

 k-point    62 :      -0.3750   -0.1250    0.0000
  band No.  band energies     occupation 
      1     -17.2307      2.00000
      2     -17.0740      2.00000
      3      -7.7778      2.00000
      4      -7.4600      2.00000
      5      -6.6964      2.00000
      6      -6.4952      2.00000
      7      -6.3040      2.00000
      8      -5.9604      2.00000
      9      -5.1479      2.00000
     10      -4.7389      2.00000
     11      -3.9307      2.00000
     12      -3.4957      2.00000
     13      -3.3645      2.00000
     14      -3.1380      2.00000
     15      -3.0451      2.00000
     16      -2.5829      2.00000
     17      -2.4140      2.00000
     18      -0.3714      0.00000
     19       1.1533      0.00000
     20       2.5483      0.00000
     21       4.8485      0.00000
     22       5.1379      0.00000

 k-point    63 :      -0.2500   -0.1250    0.0000
  band No.  band energies     occupation 
      1     -17.3332      2.00000
      2     -17.2086      2.00000
      3      -7.7630      2.00000
      4      -7.2373      2.00000
      5      -6.7288      2.00000
      6      -6.5564      2.00000
      7      -6.3787      2.00000
      8      -5.8287      2.00000
      9      -5.2504      2.00000
     10      -5.0088      2.00000
     11      -4.1348      2.00000
     12      -3.7017      2.00000
     13      -3.0965      2.00000
     14      -2.8351      2.00000
     15      -2.5801      2.00000
     16      -2.4815      2.00000
     17      -2.2293      2.00000
     18      -0.4546      0.00000
     19       0.8066      0.00000
     20       3.2606      0.00000
     21       4.4422      0.00000
     22       4.8656      0.00000

 k-point    64 :      -0.1250   -0.1250    0.0000
  band No.  band energies     occupation 
      1     -17.4861      2.00000
      2     -17.3761      2.00000
      3      -7.8285      2.00000
      4      -7.1229      2.00000
      5      -6.9520      2.00000
      6      -6.4825      2.00000
      7      -6.3796      2.00000
      8      -5.8269      2.00000
      9      -5.0510      2.00000
     10      -4.9515      2.00000
     11      -4.3710      2.00000
     12      -3.1710      2.00000
     13      -2.9084      2.00000
     14      -2.6129      2.00000
     15      -2.5102      2.00000
     16      -2.4238      2.00000
     17      -2.0710      2.00000
     18      -0.4104      0.00000
     19       0.0278      0.00000
     20       3.5403      0.00000
     21       3.9119      0.00000
     22       4.4158      0.00000


--------------------------------------------------------------------------------------------------------


 soft charge-density along one line, spin component           1
         0         1         2         3         4         5         6         7         8         9
 total charge-density along one line
 
 pseudopotential strength for first ion, spin component:           1
 49.302  51.742   0.000   0.035  -0.000   0.000   0.043  -0.000
 51.742  54.306   0.000   0.036  -0.000   0.000   0.045  -0.000
  0.000   0.000   9.302   0.000   0.000  11.530   0.000   0.000
  0.035   0.036   0.000   9.300  -0.000   0.000  11.528  -0.000
 -0.000  -0.000   0.000  -0.000   9.302   0.000  -0.000  11.530
  0.000   0.000  11.530   0.000   0.000  14.307   0.000   0.000
  0.043   0.045   0.000  11.528  -0.000   0.000  14.305  -0.000
 -0.000  -0.000   0.000  -0.000  11.530   0.000  -0.000  14.307
 total augmentation occupancy for first ion, spin component:           1
  8.678  -6.644  -0.000  -2.916   0.009   0.000   1.254  -0.003
 -6.644   6.564   0.000   2.737  -0.009  -0.000  -1.242   0.003
 -0.000   0.000   3.429   0.000   0.001  -0.981  -0.000  -0.000
 -2.916   2.737   0.000   3.169  -0.003  -0.000  -0.823   0.002
  0.009  -0.009   0.001  -0.003   3.429  -0.000   0.002  -0.981
  0.000  -0.000  -0.981  -0.000  -0.000   0.445   0.000   0.000
  1.254  -1.242  -0.000  -0.823   0.002   0.000   0.405  -0.000
 -0.003   0.003  -0.000   0.002  -0.981   0.000  -0.000   0.445


------------------------ aborting loop because EDIFF is reached ----------------------------------------


    CHARGE:  cpu time    0.4075: real time    0.4075
    FORLOC:  cpu time    0.0297: real time    0.0297
    FORNL :  cpu time    0.5219: real time    0.5219
    STRESS:  cpu time    3.2879: real time    3.2880
    FORCOR:  cpu time    0.2854: real time    0.2876
    FORHAR:  cpu time    0.0580: real time    0.0593
    MIXING:  cpu time    0.0213: real time    0.0213
    OFIELD:  cpu time    0.0001: real time    0.0028

 ---------------------------------------------------------------------------------------------

         DFTD3 V3.0 Rev 1        
 Edisp (eV)   -1.22344

 E6    (eV) :    -0.3507
 E8    (eV) :    -0.8728
 % E8        : 71.34
    FORVDW:  cpu time    0.0130: real time    0.0157

  FORCE on cell =-STRESS in cart. coord.  units (eV):
  Direction    XX          YY          ZZ          XY          YZ          ZX
  --------------------------------------------------------------------------------------
  Alpha Z    41.51426    41.51426    41.51426
  Ewald    7406.82999  7406.83001 -8923.11572     0.24021     0.03236    -0.97199
  Hartree  7881.25122  7881.25211 -7696.92428     0.03803     0.01188    -0.36223
  E(xc)    -140.94664  -140.94665  -141.49366     0.00466     0.00008    -0.00246
  Local  -15913.67269-15913.67402 15985.14386    -0.17368    -0.04184     1.26257
  n-local   141.93001   141.92993   143.88008    -0.03391     0.00033    -0.00720
  augment    78.83559    78.83570    79.94170    -0.01777    -0.00024     0.00655
  Kinetic   504.70013   504.70065   511.15715    -0.11877    -0.00235     0.06935
  Fock        0.00000     0.00000     0.00000     0.00000     0.00000     0.00000
  vdW        -0.82721    -0.82716    -0.16704    -0.00611    -0.00007     0.00228
  -------------------------------------------------------------------------------------
  Total      -0.38533    -0.38519    -0.06365    -0.06735     0.00016    -0.00314
  in kB      -2.64048    -2.63950    -0.43615    -0.46148     0.00110    -0.02153
  external pressure =       -1.91 kB  Pullay stress =        0.00 kB


 VOLUME and BASIS-vectors are now :
 -----------------------------------------------------------------------------
  energy-cutoff  :      400.00
  volume of cell :      233.81
      direct lattice vectors                 reciprocal lattice vectors
     3.673805649 -0.036629028  0.000000000     0.273729079  0.153633234  0.000000000
    -1.796041249  3.200015421  0.000000000     0.003133244  0.314257059  0.000000000
     0.000000000  0.000000000 20.000000000     0.000000000  0.000000000  0.050000000

  length of vectors
     3.673988246  3.669586197 20.000000000     0.313896128  0.314272679  0.050000000


 FORCES acting on ions
    electron-ion (+dipol)            ewald-force                    non-local-force                 convergence-correction
 -----------------------------------------------------------------------------------------------
   -.273E+00 0.831E-02 0.972E+03   0.292E+00 -.886E-02 -.977E+03   -.154E-01 0.471E-03 0.507E+01   -.246E-02 0.737E-04 -.836E-03
   0.154E+00 -.544E-02 -.981E+03   -.158E+00 0.558E-02 0.984E+03   0.203E-02 -.117E-03 -.262E+01   0.934E-03 -.228E-04 -.999E-03
   0.103E+00 -.344E-02 -.557E+03   -.823E-01 0.284E-02 0.550E+03   -.204E-01 0.724E-03 0.636E+01   -.959E-03 -.140E-04 -.457E-02
   0.434E-01 -.182E-03 0.564E+03   -.523E-01 0.438E-03 -.558E+03   0.866E-02 -.417E-03 -.624E+01   0.102E-02 0.545E-04 -.444E-02
 -----------------------------------------------------------------------------------------------
   0.264E-01 -.757E-03 -.255E+01   0.558E-14 -.114E-13 0.000E+00   -.250E-01 0.661E-03 0.256E+01   -.147E-02 0.914E-04 -.108E-01
 
 
 POSITION                                       TOTAL-FORCE (eV/Angst)
 -----------------------------------------------------------------------------------
     -0.89491      1.59978      3.40618         0.000467      0.000006     -0.000392
     -0.90141      1.60000      7.67684        -0.000368     -0.000010     -0.000405
      0.92471      0.52102      6.19822        -0.000605      0.000099      0.000525
      0.95408      2.64209      4.72343         0.000506     -0.000096      0.000272
 -----------------------------------------------------------------------------------
    total drift:                               -0.000124     -0.000004     -0.000235


--------------------------------------------------------------------------------------------------------



  FREE ENERGIE OF THE ION-ELECTRON SYSTEM (eV)
  ---------------------------------------------------
  free  energy   TOTEN  =       -17.78539472 eV

  energy  without entropy=      -17.78539472  energy(sigma->0) =      -17.78539472
 
 d Force = 0.4345805E-06[ 0.122E-06, 0.747E-06]  d Energy = 0.4264119E-06 0.817E-08
 d Force = 0.5943775E-01[ 0.594E-01, 0.594E-01]  d Ewald  = 0.5943775E-01-0.982E-10


--------------------------------------------------------------------------------------------------------


    POTLOK:  cpu time    0.3084: real time    0.3612


--------------------------------------------------------------------------------------------------------


 Quasi-Newton relaxation of ions (Broydens 2nd method)
  g(Force)  = 0.802E-07   g(Stress)= 0.000E+00

 retain information from N=  2 steps
 eigenvalues of (default step * inverse Hessian matrix)
  average eigenvalue of G=   4.0527
 eigenvalue spectrum of G is  4.0527  4.0527


--------------------------------------------------------------------------------------------------------


  
 reached required accuracy - stopping structural energy minimisation
 writing wavefunctions
     LOOP+:  cpu time   21.4164: real time   21.5943
    4ORBIT:  cpu time    0.0000: real time    0.0000

 total amount of memory used by VASP MPI-rank0   232806. kBytes
=======================================================================

   base      :      30000. kBytes
   nonl-proj :     118662. kBytes
   fftplans  :      11208. kBytes
   grid      :      23989. kBytes
   one-center:         62. kBytes
   wavefun   :      48885. kBytes
 
  
  
 General timing and accounting informations for this job:
 ========================================================
  
                  Total CPU time used (sec):      360.794
                            User time (sec):      356.691
                          System time (sec):        4.103
                         Elapsed time (sec):      361.842
  
                   Maximum memory used (kb):      379052.
                   Average memory used (kb):           0.
  
                          Minor page faults:        99833
                          Major page faults:            0
                 Voluntary context switches:           80
