 vasp.5.4.4.16052018 (build Dec 07 2020 11:33:42) complex                       
  
 executed on             LinuxIFC date 2020.12.13  00:45:36
 running on    8 total cores
 distrk:  each k-point on    2 cores,    4 groups
 distr:  one band on NCORES_PER_BAND=   1 cores,    2 groups


--------------------------------------------------------------------------------------------------------


 INCAR:
 POTCAR:    PAW_PBE Cl 06Sep2000                  
 POTCAR:    PAW_PBE Br 06Sep2000                  
 POTCAR:    PAW_PBE Pt 04Feb2005                  

 ----------------------------------------------------------------------------- 
|                                                                             |
|           W    W    AA    RRRRR   N    N  II  N    N   GGGG   !!!           |
|           W    W   A  A   R    R  NN   N  II  NN   N  G    G  !!!           |
|           W    W  A    A  R    R  N N  N  II  N N  N  G       !!!           |
|           W WW W  AAAAAA  RRRRR   N  N N  II  N  N N  G  GGG   !            |
|           WW  WW  A    A  R   R   N   NN  II  N   NN  G    G                |
|           W    W  A    A  R    R  N    N  II  N    N   GGGG   !!!           |
|                                                                             |
|      For optimal performance we recommend to set                            |
|        NCORE= 4 - approx SQRT( number of cores)                             |
|      NCORE specifies how many cores store one orbital (NPAR=cpu/NCORE).     |
|      This setting can  greatly improve the performance of VASP for DFT.     |
|      The default,   NCORE=1            might be grossly inefficient         |
|      on modern multi-core architectures or massively parallel machines.     |
|      Do your own testing !!!!                                               |
|      Unfortunately you need to use the default for GW and RPA calculations. |
|      (for HF NCORE is supported but not extensively tested yet)             |
|                                                                             |
 ----------------------------------------------------------------------------- 


 ----------------------------------------------------------------------------- 
|                                                                             |
|           W    W    AA    RRRRR   N    N  II  N    N   GGGG   !!!           |
|           W    W   A  A   R    R  NN   N  II  NN   N  G    G  !!!           |
|           W    W  A    A  R    R  N N  N  II  N N  N  G       !!!           |
|           W WW W  AAAAAA  RRRRR   N  N N  II  N  N N  G  GGG   !            |
|           WW  WW  A    A  R   R   N   NN  II  N   NN  G    G                |
|           W    W  A    A  R    R  N    N  II  N    N   GGGG   !!!           |
|                                                                             |
|      You have enabled k-point parallelism (KPAR>1).                         |
|      This developmental code was originally  written by Paul Kent at ORNL,  |
|      and carefully double checked in Vienna.                                |
|      GW as well as linear response parallelism added by Martijn Marsman     |
|      and Georg Kresse.                                                      |
|      Carefully verify results versus KPAR=1.                                |
|      Report problems to Paul Kent and Vienna.                               |
|                                                                             |
 ----------------------------------------------------------------------------- 

 POTCAR:    PAW_PBE Cl 06Sep2000                  
   VRHFIN =Cl: s2p5                                                             
   LEXCH  = PE                                                                  
   EATOM  =   409.7259 eV,   30.1140 Ry                                         
                                                                                
   TITEL  = PAW_PBE Cl 06Sep2000                                                
   LULTRA =        F    use ultrasoft PP ?                                      
   IUNSCR =        1    unscreen: 0-lin 1-nonlin 2-no                           
   RPACOR =    1.500    partial core radius                                     
   POMASS =   35.453; ZVAL   =    7.000    mass and valenz                      
   RCORE  =    1.900    outmost cutoff radius                                   
   RWIGS  =    2.100; RWIGS  =    1.111    wigner-seitz radius (au A)           
   ENMAX  =  262.472; ENMIN  =  196.854 eV                                      
   ICORE  =        2    local potential                                         
   LCOR   =        T    correct aug charges                                     
   LPAW   =        T    paw PP                                                  
   EAUG   =  356.192                                                            
   DEXC   =    0.000                                                            
   RMAX   =    1.945    core radius for proj-oper                               
   RAUG   =    1.300    factor for augmentation sphere                          
   RDEP   =    2.020    radius for radial grids                                 
   RDEPT  =    1.678    core radius for aug-charge                              
                                                                                
   Atomic configuration                                                         
    6 entries                                                                   
     n  l   j            E        occ.                                          
     1  0  0.50     -2751.1850   2.0000                                         
     2  0  0.50      -252.6861   2.0000                                         
     2  1  1.50      -191.6157   6.0000                                         
     3  0  0.50       -20.6916   2.0000                                         
     3  1  0.50        -8.5949   5.0000                                         
     3  2  1.50        -8.1635   0.0000                                         
   Description                                                                  
     l       E           TYP  RCUT    TYP  RCUT                                 
     0    -20.6915656     23  1.900                                             
     0    -22.0521482     23  1.900                                             
     1     -8.5948577     23  1.900                                             
     1     -5.3847331     23  1.900                                             
     2     -8.1634956     23  1.900                                             
  local pseudopotential read in
  partial core-charges read in
  partial kinetic energy density read in
  atomic valenz-charges read in
  non local Contribution for L=           0  read in
    real space projection operators read in
  non local Contribution for L=           0  read in
    real space projection operators read in
  non local Contribution for L=           1  read in
    real space projection operators read in
  non local Contribution for L=           1  read in
    real space projection operators read in
    PAW grid and wavefunctions read in
 
   number of l-projection  operators is LMAX  =           4
   number of lm-projection operators is LMMAX =           8
 
 POTCAR:    PAW_PBE Br 06Sep2000                  
   VRHFIN =Br: s2p5                                                             
   LEXCH  = PE                                                                  
   EATOM  =   368.4488 eV,   27.0802 Ry                                         
                                                                                
   TITEL  = PAW_PBE Br 06Sep2000                                                
   LULTRA =        F    use ultrasoft PP ?                                      
   IUNSCR =        1    unscreen: 0-lin 1-nonlin 2-no                           
   RPACOR =    1.900    partial core radius                                     
   POMASS =   79.904; ZVAL   =    7.000    mass and valenz                      
   RCORE  =    2.100    outmost cutoff radius                                   
   RWIGS  =    2.200; RWIGS  =    1.164    wigner-seitz radius (au A)           
   ENMAX  =  216.285; ENMIN  =  162.214 eV                                      
   ICORE  =        3    local potential                                         
   LCOR   =        T    correct aug charges                                     
   LPAW   =        T    paw PP                                                  
   EAUG   =  503.852                                                            
   DEXC   =    0.000                                                            
   RMAX   =    2.139    core radius for proj-oper                               
   RAUG   =    1.300    factor for augmentation sphere                          
   RDEP   =    2.186    radius for radial grids                                 
   RDEPT  =    1.890    core radius for aug-charge                              
                                                                                
   Atomic configuration                                                         
   10 entries                                                                   
     n  l   j            E        occ.                                          
     1  0  0.50    -13316.2796   2.0000                                         
     2  0  0.50     -1732.8239   2.0000                                         
     2  1  1.50     -1528.2193   6.0000                                         
     3  0  0.50      -238.0460   2.0000                                         
     3  1  1.50      -173.4609   6.0000                                         
     3  2  2.50       -66.7132  10.0000                                         
     4  0  0.50       -20.1334   2.0000                                         
     4  1  0.50        -7.8591   5.0000                                         
     4  2  2.50        -8.1635   0.0000                                         
     4  3  2.50        -8.1635   0.0000                                         
   Description                                                                  
     l       E           TYP  RCUT    TYP  RCUT                                 
     0    -20.1333652     23  2.100                                             
     0    -21.4939478     23  2.100                                             
     1     -7.8591052     23  2.100                                             
     1     -3.1608434     23  2.100                                             
     2     -8.1634956     23  2.100                                             
     3     -1.3605826      7  2.100                                             
  local pseudopotential read in
  partial core-charges read in
  partial kinetic energy density read in
  atomic valenz-charges read in
  non local Contribution for L=           0  read in
    real space projection operators read in
  non local Contribution for L=           0  read in
    real space projection operators read in
  non local Contribution for L=           1  read in
    real space projection operators read in
  non local Contribution for L=           1  read in
    real space projection operators read in
  non local Contribution for L=           2  read in
    real space projection operators read in
    PAW grid and wavefunctions read in
 
   number of l-projection  operators is LMAX  =           5
   number of lm-projection operators is LMMAX =          13
 
 POTCAR:    PAW_PBE Pt 04Feb2005                  
   VRHFIN =Pt: s1d9                                                             
   LEXCH  = PE                                                                  
   EATOM  =   729.1176 eV,   53.5886 Ry                                         
                                                                                
   TITEL  = PAW_PBE Pt 04Feb2005                                                
   LULTRA =        F    use ultrasoft PP ?                                      
   IUNSCR =        1    unscreen: 0-lin 1-nonlin 2-no                           
   RPACOR =    2.330    partial core radius                                     
   POMASS =  195.080; ZVAL   =   10.000    mass and valenz                      
   RCORE  =    2.600    outmost cutoff radius                                   
   RWIGS  =    2.750; RWIGS  =    1.455    wigner-seitz radius (au A)           
   ENMAX  =  230.283; ENMIN  =  172.712 eV                                      
   ICORE  =        3    local potential                                         
   LCOR   =        T    correct aug charges                                     
   LPAW   =        T    paw PP                                                  
   EAUG   =  358.966                                                            
   DEXC   =    0.000                                                            
   RMAX   =    2.658    core radius for proj-oper                               
   RAUG   =    1.300    factor for augmentation sphere                          
   RDEP   =    2.761    radius for radial grids                                 
   RDEPT  =    2.203    core radius for aug-charge                              
                                                                                
   Atomic configuration                                                         
   16 entries                                                                   
     n  l   j            E        occ.                                          
     1  0  0.50    -78401.1885   2.0000                                         
     2  0  0.50    -13770.7750   2.0000                                         
     2  1  1.50    -11931.0468   6.0000                                         
     3  0  0.50     -3234.7234   2.0000                                         
     3  1  1.50     -2699.2216   6.0000                                         
     3  2  2.50     -2119.5714  10.0000                                         
     4  0  0.50      -695.1528   2.0000                                         
     4  1  1.50      -519.6034   6.0000                                         
     4  2  2.50      -306.6786  10.0000                                         
     4  3  3.50       -70.1041  14.0000                                         
     5  0  0.50      -101.7747   2.0000                                         
     5  1  1.50       -55.9873   6.0000                                         
     5  2  2.50        -6.1423   9.0000                                         
     6  0  0.50        -5.6573   1.0000                                         
     6  1  1.50        -6.8029   0.0000                                         
     5  3  2.50        -1.3606   0.0000                                         
   Description                                                                  
     l       E           TYP  RCUT    TYP  RCUT                                 
     2     -6.1423404     23  2.500                                             
     2     -7.5029230     23  2.500                                             
     0     -5.6573207     23  2.500                                             
     0      0.7416693     23  2.500                                             
     1     -2.7211652     23  2.600                                             
     1     20.4087390     23  2.600                                             
     3     -1.3605826     23  2.500                                             
  local pseudopotential read in
  partial core-charges read in
  partial kinetic energy density read in
  atomic valenz-charges read in
  non local Contribution for L=           2  read in
    real space projection operators read in
  non local Contribution for L=           2  read in
    real space projection operators read in
  non local Contribution for L=           0  read in
    real space projection operators read in
  non local Contribution for L=           0  read in
    real space projection operators read in
  non local Contribution for L=           1  read in
    real space projection operators read in
  non local Contribution for L=           1  read in
    real space projection operators read in
    PAW grid and wavefunctions read in
 
   number of l-projection  operators is LMAX  =           6
   number of lm-projection operators is LMMAX =          18
 
  PAW_PBE Cl 06Sep2000                  :
 energy of atom  1       EATOM= -409.7259
 kinetic energy error for atom=    0.0150 (will be added to EATOM!!)
  PAW_PBE Br 06Sep2000                  :
 energy of atom  2       EATOM= -368.4488
 kinetic energy error for atom=    0.0072 (will be added to EATOM!!)
  PAW_PBE Pt 04Feb2005                  :
 energy of atom  3       EATOM= -729.1176
 kinetic energy error for atom=    0.0416 (will be added to EATOM!!)
 
 
 POSCAR: ClBrPt2                                 
  positions in direct lattice
  velocities in cartesian coordinates
 exchange correlation table for  LEXCH =        8
   RHO(1)=    0.500       N(1)  =     2000
   RHO(2)=  100.500       N(2)  =     4000
 


--------------------------------------------------------------------------------------------------------


 ion  position               nearest neighbor table
   1  0.000  0.500  0.168-   4 2.49   4 2.49   4 2.49
   2  0.000  0.500  0.386-   3 2.58   3 2.58   3 2.58
   3  0.333  0.167  0.310-   4 2.58   4 2.58   4 2.58   2 2.58   2 2.58   2 2.58
   4  0.667  0.833  0.236-   1 2.49   1 2.49   1 2.49   3 2.58   3 2.58   3 2.58
 

IMPORTANT INFORMATION: All symmetrisations will be switched off!
NOSYMM: (Re-)initialisation of all symmetry stuff for point group C_1.

 
 
 KPOINTS: Automatic mesh                          

Automatic generation of k-mesh.
Space group operators:
 irot       det(A)        alpha          n_x          n_y          n_z        tau_x        tau_y        tau_z
    1     1.000000     0.000000     1.000000     0.000000     0.000000     0.000000     0.000000     0.000000
 
 Subroutine IBZKPT returns following result:
 ===========================================
 
 Found     16 irreducible k-points:
 
 Following reciprocal coordinates:
            Coordinates               Weight
  0.000000  0.000000  0.000000      1.000000
  0.250000  0.000000  0.000000      1.000000
  0.500000  0.000000  0.000000      1.000000
 -0.250000 -0.000000  0.000000      1.000000
 -0.000000  0.250000  0.000000      1.000000
  0.250000  0.250000  0.000000      1.000000
  0.500000  0.250000  0.000000      1.000000
 -0.250000  0.250000  0.000000      1.000000
 -0.000000  0.500000  0.000000      1.000000
  0.250000  0.500000  0.000000      1.000000
  0.500000  0.500000  0.000000      1.000000
 -0.250000  0.500000  0.000000      1.000000
  0.000000 -0.250000  0.000000      1.000000
  0.250000 -0.250000  0.000000      1.000000
  0.500000 -0.250000  0.000000      1.000000
 -0.250000 -0.250000  0.000000      1.000000
 
 Following cartesian coordinates:
            Coordinates               Weight
  0.000000  0.000000  0.000000      1.000000
  0.069130  0.038994  0.000000      1.000000
  0.138259  0.077988  0.000000      1.000000
 -0.069130 -0.038994  0.000000      1.000000
  0.000795  0.079365  0.000000      1.000000
  0.069925  0.118359  0.000000      1.000000
  0.139055  0.157353  0.000000      1.000000
 -0.068334  0.040371  0.000000      1.000000
  0.001591  0.158730  0.000000      1.000000
  0.070720  0.197724  0.000000      1.000000
  0.139850  0.236718  0.000000      1.000000
 -0.067539  0.119736  0.000000      1.000000
 -0.000795 -0.079365  0.000000      1.000000
  0.068334 -0.040371  0.000000      1.000000
  0.137464 -0.001377  0.000000      1.000000
 -0.069925 -0.118359  0.000000      1.000000
 


--------------------------------------------------------------------------------------------------------




 Dimension of arrays:
   k-points           NKPTS =     16   k-points in BZ     NKDIM =     16   number of bands    NBANDS=     22
   number of dos      NEDOS =    301   number of ions     NIONS =      4
   non local maximal  LDIM  =      6   non local SUM 2l+1 LMDIM =     18
   total plane-waves  NPLWV =  69120
   max r-space proj   IRMAX =      1   max aug-charges    IRDMAX=  18469
   dimension x,y,z NGX =    24 NGY =   24 NGZ =  120
   dimension x,y,z NGXF=    48 NGYF=   48 NGZF=  240
   support grid    NGXF=    48 NGYF=   48 NGZF=  240
   ions per type =               1   1   2
   NGX,Y,Z   is equivalent  to a cutoff of  10.97, 10.97,  9.97 a.u.
   NGXF,Y,Z  is equivalent  to a cutoff of  21.94, 21.94, 19.95 a.u.

 SYSTEM =  unknown system                          
 POSCAR =  ClBrPt2                                 

 Startparameter for this run:
   NWRITE =      2    write-flag & timer
   PREC   = accura    normal or accurate (medium, high low for compatibility)
   ISTART =      0    job   : 0-new  1-cont  2-samecut
   ICHARG =      2    charge: 1-file 2-atom 10-const
   ISPIN  =      1    spin polarized calculation?
   LNONCOLLINEAR =      F non collinear calculations
   LSORBIT =      F    spin-orbit coupling
   INIWAV =      1    electr: 0-lowe 1-rand  2-diag
   LASPH  =      F    aspherical Exc in radial PAW
   METAGGA=      F    non-selfconsistent MetaGGA calc.

 Electronic Relaxation 1
   ENCUT  =  300.0 eV  22.05 Ry    4.70 a.u.   5.14  5.14 28.25*2*pi/ulx,y,z
   ENINI  =  300.0     initial cutoff
   ENAUG  =  503.9 eV  augmentation charge cutoff
   NELM   =     60;   NELMIN=  2; NELMDL= -5     # of ELM steps 
   EDIFF  = 0.5E-04   stopping-criterion for ELM
   LREAL  =      F    real-space projection
   NLSPLINE    = F    spline interpolate recip. space projectors
   LCOMPAT=      F    compatible to vasp.4.4
   GGA_COMPAT  = T    GGA compatible to vasp.4.4-vasp.4.6
   LMAXPAW     = -100 max onsite density
   LMAXMIX     =    2 max onsite mixed and CHGCAR
   VOSKOWN=      0    Vosko Wilk Nusair interpolation
   ROPT   =    0.00000   0.00000   0.00000
 Ionic relaxation
   EDIFFG = 0.5E-03   stopping-criterion for IOM
   NSW    =    100    number of steps for IOM
   NBLOCK =      1;   KBLOCK =    100    inner block; outer block 
   IBRION =      1    ionic relax: 0-MD 1-quasi-New 2-CG
   NFREE  =      0    steps in history (QN), initial steepest desc. (CG)
   ISIF   =      3    stress and relaxation
   IWAVPR =     11    prediction:  0-non 1-charg 2-wave 3-comb
   ISYM   =     -1    0-nonsym 1-usesym 2-fastsym
   LCORR  =      T    Harris-Foulkes like correction to forces

   POTIM  = 0.5000    time-step for ionic-motion
   TEIN   =    0.0    initial temperature
   TEBEG  =    0.0;   TEEND  =   0.0 temperature during run
   SMASS  =  -3.00    Nose mass-parameter (am)
   estimated Nose-frequenzy (Omega)   =  0.10E-29 period in steps =****** mass=  -0.302E-27a.u.
   SCALEE = 1.0000    scale energy and forces
   NPACO  =    256;   APACO  = 16.0  distance and # of slots for P.C.
   PSTRESS=    0.0 pullay stress

  Mass of Ions in am
   POMASS =  35.45 79.90195.08
  Ionic Valenz
   ZVAL   =   7.00  7.00 10.00
  Atomic Wigner-Seitz radii
   RWIGS  =  -1.00 -1.00 -1.00
  virtual crystal weights 
   VCA    =   1.00  1.00  1.00
   NELECT =      34.0000    total number of electrons
   NUPDOWN=      -1.0000    fix difference up-down

 DOS related values:
   EMIN   =  10.00;   EMAX   =-10.00  energy-range for DOS
   EFERMI =   0.00
   ISMEAR =     0;   SIGMA  =   0.10  broadening in eV -4-tet -1-fermi 0-gaus

 Electronic relaxation 2 (details)
   IALGO  =     38    algorithm
   LDIAG  =      T    sub-space diagonalisation (order eigenvalues)
   LSUBROT=      F    optimize rotation matrix (better conditioning)
   TURBO    =      0    0=normal 1=particle mesh
   IRESTART =      0    0=no restart 2=restart with 2 vectors
   NREBOOT  =      0    no. of reboots
   NMIN     =      0    reboot dimension
   EREF     =   0.00    reference energy to select bands
   IMIX   =      4    mixing-type and parameters
     AMIX     =   0.40;   BMIX     =  1.00
     AMIX_MAG =   1.60;   BMIX_MAG =  1.00
     AMIN     =   0.10
     WC   =   100.;   INIMIX=   1;  MIXPRE=   1;  MAXMIX= -45

 Intra band minimization:
   WEIMIN = 0.0010     energy-eigenvalue tresh-hold
   EBREAK =  0.57E-06  absolut break condition
   DEPER  =   0.30     relativ break condition  

   TIME   =   0.40     timestep for ELM

  volume/ion in A,a.u.               =      57.28       386.56
  Fermi-wavevector in a.u.,A,eV,Ry     =   0.866713  1.637850 10.220584  0.751192
  Thomas-Fermi vector in A             =   1.985142
 
 Write flags
   LWAVE        =      T    write WAVECAR
   LDOWNSAMPLE  =      F    k-point downsampling of WAVECAR
   LCHARG       =      T    write CHGCAR
   LVTOT        =      F    write LOCPOT, total local potential
   LVHAR        =      F    write LOCPOT, Hartree potential only
   LELF         =      F    write electronic localiz. function (ELF)
   LORBIT       =      0    0 simple, 1 ext, 2 COOP (PROOUT), +10 PAW based schemes


 Dipole corrections
   LMONO  =      F    monopole corrections only (constant potential shift)
   LDIPOL =      T    correct potential (dipole corrections)
   IDIPOL =      3    1-x, 2-y, 3-z, 4-all directions 
   EPSILON=  1.0000000 bulk dielectric constant

 Exchange correlation treatment:
   GGA     =    --    GGA type
   LEXCH   =     8    internal setting for exchange type
   VOSKOWN=      0    Vosko Wilk Nusair interpolation
   LHFCALC =     F    Hartree Fock is set to
   LHFONE  =     F    Hartree Fock one center treatment
   AEXX    =    0.0000 exact exchange contribution

 Linear response parameters
   LEPSILON=     F    determine dielectric tensor
   LRPA    =     F    only Hartree local field effects (RPA)
   LNABLA  =     F    use nabla operator in PAW spheres
   LVEL    =     F    velocity operator in full k-point grid
   LINTERFAST=   F  fast interpolation
   KINTER  =     0    interpolate to denser k-point grid
   CSHIFT  =0.1000    complex shift for real part using Kramers Kronig
   OMEGAMAX=  -1.0    maximum frequency
   DEG_THRESHOLD= 0.2000000E-02 threshold for treating states as degnerate
   RTIME   =   -0.100 relaxation time in fs
  (WPLASMAI=    0.000 imaginary part of plasma frequency in eV, 0.658/RTIME)
   DFIELD  = 0.0000000 0.0000000 0.0000000 field for delta impulse in time
 
 Orbital magnetization related:
   ORBITALMAG=     F  switch on orbital magnetization
   LCHIMAG   =     F  perturbation theory with respect to B field
   DQ        =  0.001000  dq finite difference perturbation B field
   LLRAUG    =     F  two centre corrections for induced B field



--------------------------------------------------------------------------------------------------------


 quasi-Newton-method for relaxation of ions
 charge density and potential will be updated during run
 non-spin polarized calculation
 Variant of blocked Davidson
 Davidson routine will perform the subspace rotation
 perform sub-space diagonalisation
    after iterative eigenvector-optimisation
 modified Broyden-mixing scheme, WC =      100.0
 initial mixing is a Kerker type mixing with AMIX =  0.4000 and BMIX =      1.0000
 Hartree-type preconditioning will be used
 using additional bands            5
 reciprocal scheme for non local part
 use partial core corrections
 calculate Harris-corrections to forces 
   (improved forces if not selfconsistent)
 use gradient corrections 
 use of overlap-Matrix (Vanderbilt PP)
 Gauss-broadening in eV      SIGMA  =   0.10


--------------------------------------------------------------------------------------------------------


  energy-cutoff  :      300.00
  volume of cell :      229.13
      direct lattice vectors                 reciprocal lattice vectors
     3.636944978 -0.036443352  0.000000000     0.276518965  0.155975300  0.000000000
    -1.786911496  3.167904907  0.000000000     0.003181054  0.317460370  0.000000000
     0.000000000  0.000000000 20.000000000     0.000000000  0.000000000  0.050000000

  length of vectors
     3.637127560  3.637124440 20.000000000     0.317476034  0.317476307  0.050000000


 
 k-points in units of 2pi/SCALE and weight: Automatic mesh                          
   0.00000000  0.00000000  0.00000000       0.062
   0.06912974  0.03899383  0.00000000       0.062
   0.13825948  0.07798765  0.00000000       0.062
  -0.06912974 -0.03899383  0.00000000       0.062
   0.00079526  0.07936509  0.00000000       0.062
   0.06992500  0.11835892  0.00000000       0.062
   0.13905475  0.15735274  0.00000000       0.062
  -0.06833448  0.04037127  0.00000000       0.062
   0.00159053  0.15873018  0.00000000       0.062
   0.07072027  0.19772401  0.00000000       0.062
   0.13985001  0.23671783  0.00000000       0.062
  -0.06753921  0.11973636  0.00000000       0.062
  -0.00079526 -0.07936509  0.00000000       0.062
   0.06833448 -0.04037127  0.00000000       0.062
   0.13746422 -0.00137744  0.00000000       0.062
  -0.06992500 -0.11835892  0.00000000       0.062
 
 k-points in reciprocal lattice and weights: Automatic mesh                          
   0.00000000  0.00000000  0.00000000       0.062
   0.25000000  0.00000000  0.00000000       0.062
   0.50000000  0.00000000  0.00000000       0.062
  -0.25000000 -0.00000000  0.00000000       0.062
  -0.00000000  0.25000000  0.00000000       0.062
   0.25000000  0.25000000  0.00000000       0.062
   0.50000000  0.25000000  0.00000000       0.062
  -0.25000000  0.25000000  0.00000000       0.062
  -0.00000000  0.50000000  0.00000000       0.062
   0.25000000  0.50000000  0.00000000       0.062
   0.50000000  0.50000000  0.00000000       0.062
  -0.25000000  0.50000000  0.00000000       0.062
   0.00000000 -0.25000000  0.00000000       0.062
   0.25000000 -0.25000000  0.00000000       0.062
   0.50000000 -0.25000000  0.00000000       0.062
  -0.25000000 -0.25000000  0.00000000       0.062
 
 position of ions in fractional coordinates (direct lattice) 
   0.00003284  0.49996180  0.16834626
   0.00003221  0.49995994  0.38572384
   0.33336542  0.16662742  0.31048675
   0.66669892  0.83329448  0.23567645
 
 position of ions in cartesian coordinates  (Angst):
  -0.89326804  1.58383024  3.36692514
  -0.89326702  1.58382437  7.71447671
   0.91468324  0.51571087  6.20973506
   0.93572381  2.61550093  4.71352901
 


--------------------------------------------------------------------------------------------------------


 k-point  1 :   0.0000 0.0000 0.0000  plane waves:    2685
 k-point  2 :   0.2500 0.0000 0.0000  plane waves:    2699
 k-point  3 :   0.5000 0.0000 0.0000  plane waves:    2710
 k-point  4 :  -0.2500-0.0000 0.0000  plane waves:    2699
 k-point  5 :  -0.0000 0.2500 0.0000  plane waves:    2699
 k-point  6 :   0.2500 0.2500 0.0000  plane waves:    2719
 k-point  7 :   0.5000 0.2500 0.0000  plane waves:    2719
 k-point  8 :  -0.2500 0.2500 0.0000  plane waves:    2699
 k-point  9 :  -0.0000 0.5000 0.0000  plane waves:    2710
 k-point 10 :   0.2500 0.5000 0.0000  plane waves:    2719
 k-point 11 :   0.5000 0.5000 0.0000  plane waves:    2710
 k-point 12 :  -0.2500 0.5000 0.0000  plane waves:    2719
 k-point 13 :   0.0000-0.2500 0.0000  plane waves:    2699
 k-point 14 :   0.2500-0.2500 0.0000  plane waves:    2699
 k-point 15 :   0.5000-0.2500 0.0000  plane waves:    2719
 k-point 16 :  -0.2500-0.2500 0.0000  plane waves:    2719

 maximum and minimum number of plane-waves per node :      2719     2685

 maximum number of plane-waves:      2719
 maximum index in each direction: 
   IXMAX=    5   IYMAX=    5   IZMAX=   28
   IXMIN=   -5   IYMIN=   -5   IZMIN=  -28


 serial   3D FFT for wavefunctions
 parallel 3D FFT for charge:
    minimum data exchange during FFTs selected (reduces bandwidth)


 total amount of memory used by VASP MPI-rank0    87058. kBytes
=======================================================================

   base      :      30000. kBytes
   nonl-proj :      18974. kBytes
   fftplans  :       9621. kBytes
   grid      :      20579. kBytes
   one-center:         62. kBytes
   wavefun   :       7822. kBytes
 
     INWAV:  cpu time    0.0000: real time    0.0001
 Broyden mixing: mesh for mixing (old mesh)
   NGX = 11   NGY = 11   NGZ = 57
  (NGX  = 48   NGY  = 48   NGZ  =240)
  gives a total of   6897 points

 initial charge density was supplied:
 charge density of overlapping atoms calculated
 number of electron      34.0000000 magnetization 
 keeping initial charge density in first step


--------------------------------------------------------------------------------------------------------


 Maximum index for augmentation-charges         8857 (set IRDMAX)


--------------------------------------------------------------------------------------------------------


 First call to EWALD:  gamma=   0.290
 Maximum number of real-space cells 5x 5x 1
 Maximum number of reciprocal cells 2x 2x 8

    FEWALD:  cpu time    0.0012: real time    0.0012


--------------------------------------- Iteration      1(   1)  ---------------------------------------


    POTLOK:  cpu time    0.2455: real time    0.2455
    SETDIJ:  cpu time    0.0143: real time    0.0143
     EDDAV:  cpu time    0.7089: real time    0.7089
       DOS:  cpu time    0.0006: real time    0.0006
    --------------------------------------------
      LOOP:  cpu time    0.9692: real time    0.9694

 eigenvalue-minimisations  :   704
 total energy-change (2. order) : 0.2236010E+03  (-0.1021711E+04)
 number of electron      34.0000000 magnetization 
 augmentation part       34.0000000 magnetization 

 DIPCOR: dipole corrections for dipol
 direction  3 min pos   183,
 dipolmoment           0.000000      0.000000     -0.000023 electrons x Angstroem
 Tr[quadrupol]       -79.332345

 energy correction for charged system         0.000000 eV
 dipol+quadrupol energy correction           -0.000000 eV
 added-field ion interaction          0.000200 eV  (added to PSCEN)


 Free energy of the ion-electron system (eV)
  ---------------------------------------------------
  alpha Z        PSCENC =        42.36266416
  Ewald energy   TEWEN  =      5952.89720353
  -Hartree energ DENC   =     -8142.22992348
  -exchange      EXHF   =         0.00000000
  -V(xc)+E(xc)   XCENC  =        37.15949560
  PAW double counting   =      2012.60260865    -1949.97488812
  entropy T*S    EENTRO =        -0.01089837
  eigenvalues    EBANDS =        34.49019271
  atomic energy  EATOM  =      2236.30457717
  Solvation  Ediel_sol  =         0.00000000
  ---------------------------------------------------
  free energy    TOTEN  =       223.60103184 eV

  energy without entropy =      223.61193021  energy(sigma->0) =      223.60648103


--------------------------------------------------------------------------------------------------------




--------------------------------------- Iteration      1(   2)  ---------------------------------------


     EDDAV:  cpu time    0.9426: real time    0.9428
       DOS:  cpu time    0.0003: real time    0.0003
    --------------------------------------------
      LOOP:  cpu time    0.9429: real time    0.9431

 eigenvalue-minimisations  :  1052
 total energy-change (2. order) :-0.2199120E+03  (-0.2082443E+03)
 number of electron      34.0000000 magnetization 
 augmentation part       34.0000000 magnetization 

 DIPCOR: dipole corrections for dipol
 direction  3 min pos   183,
 dipolmoment           0.000000      0.000000     -0.000023 electrons x Angstroem
 Tr[quadrupol]       -79.332345

 energy correction for charged system         0.000000 eV
 dipol+quadrupol energy correction           -0.000000 eV
 added-field ion interaction          0.000200 eV  (added to PSCEN)


 Free energy of the ion-electron system (eV)
  ---------------------------------------------------
  alpha Z        PSCENC =        42.36266416
  Ewald energy   TEWEN  =      5952.89720353
  -Hartree energ DENC   =     -8142.22992348
  -exchange      EXHF   =         0.00000000
  -V(xc)+E(xc)   XCENC  =        37.15949560
  PAW double counting   =      2012.60260865    -1949.97488812
  entropy T*S    EENTRO =        -0.00743752
  eigenvalues    EBANDS =      -185.42530875
  atomic energy  EATOM  =      2236.30457717
  Solvation  Ediel_sol  =         0.00000000
  ---------------------------------------------------
  free energy    TOTEN  =         3.68899123 eV

  energy without entropy =        3.69642875  energy(sigma->0) =        3.69270999


--------------------------------------------------------------------------------------------------------




--------------------------------------- Iteration      1(   3)  ---------------------------------------


     EDDAV:  cpu time    0.8197: real time    0.8199
       DOS:  cpu time    0.0002: real time    0.0002
    --------------------------------------------
      LOOP:  cpu time    0.8199: real time    0.8201

 eigenvalue-minimisations  :   856
 total energy-change (2. order) :-0.2065706E+02  (-0.1999885E+02)
 number of electron      34.0000000 magnetization 
 augmentation part       34.0000000 magnetization 

 DIPCOR: dipole corrections for dipol
 direction  3 min pos   183,
 dipolmoment           0.000000      0.000000     -0.000023 electrons x Angstroem
 Tr[quadrupol]       -79.332345

 energy correction for charged system         0.000000 eV
 dipol+quadrupol energy correction           -0.000000 eV
 added-field ion interaction          0.000200 eV  (added to PSCEN)


 Free energy of the ion-electron system (eV)
  ---------------------------------------------------
  alpha Z        PSCENC =        42.36266416
  Ewald energy   TEWEN  =      5952.89720353
  -Hartree energ DENC   =     -8142.22992348
  -exchange      EXHF   =         0.00000000
  -V(xc)+E(xc)   XCENC  =        37.15949560
  PAW double counting   =      2012.60260865    -1949.97488812
  entropy T*S    EENTRO =        -0.00000000
  eigenvalues    EBANDS =      -206.08980407
  atomic energy  EATOM  =      2236.30457717
  Solvation  Ediel_sol  =         0.00000000
  ---------------------------------------------------
  free energy    TOTEN  =       -16.96806656 eV

  energy without entropy =      -16.96806656  energy(sigma->0) =      -16.96806656


--------------------------------------------------------------------------------------------------------




--------------------------------------- Iteration      1(   4)  ---------------------------------------


     EDDAV:  cpu time    0.8317: real time    0.8317
       DOS:  cpu time    0.0002: real time    0.0002
    --------------------------------------------
      LOOP:  cpu time    0.8319: real time    0.8320

 eigenvalue-minimisations  :   862
 total energy-change (2. order) :-0.4885373E+00  (-0.4864176E+00)
 number of electron      34.0000000 magnetization 
 augmentation part       34.0000000 magnetization 

 DIPCOR: dipole corrections for dipol
 direction  3 min pos   183,
 dipolmoment           0.000000      0.000000     -0.000023 electrons x Angstroem
 Tr[quadrupol]       -79.332345

 energy correction for charged system         0.000000 eV
 dipol+quadrupol energy correction           -0.000000 eV
 added-field ion interaction          0.000200 eV  (added to PSCEN)


 Free energy of the ion-electron system (eV)
  ---------------------------------------------------
  alpha Z        PSCENC =        42.36266416
  Ewald energy   TEWEN  =      5952.89720353
  -Hartree energ DENC   =     -8142.22992348
  -exchange      EXHF   =         0.00000000
  -V(xc)+E(xc)   XCENC  =        37.15949560
  PAW double counting   =      2012.60260865    -1949.97488812
  entropy T*S    EENTRO =        -0.00000000
  eigenvalues    EBANDS =      -206.57834133
  atomic energy  EATOM  =      2236.30457717
  Solvation  Ediel_sol  =         0.00000000
  ---------------------------------------------------
  free energy    TOTEN  =       -17.45660382 eV

  energy without entropy =      -17.45660382  energy(sigma->0) =      -17.45660382


--------------------------------------------------------------------------------------------------------




--------------------------------------- Iteration      1(   5)  ---------------------------------------


     EDDAV:  cpu time    0.8402: real time    0.8403
       DOS:  cpu time    0.0002: real time    0.0002
    CHARGE:  cpu time    0.0873: real time    0.0873
    MIXING:  cpu time    0.0077: real time    0.0077
    --------------------------------------------
      LOOP:  cpu time    0.9353: real time    0.9355

 eigenvalue-minimisations  :   878
 total energy-change (2. order) :-0.1148177E-01  (-0.1147719E-01)
 number of electron      34.0000006 magnetization 
 augmentation part        3.4285814 magnetization 

 DIPCOR: dipole corrections for dipol
 direction  3 min pos   183,
 dipolmoment           0.000000      0.000000     -0.000023 electrons x Angstroem
 Tr[quadrupol]       -79.332345

 energy correction for charged system         0.000000 eV
 dipol+quadrupol energy correction           -0.000000 eV
 added-field ion interaction          0.000200 eV  (added to PSCEN)


 Broyden mixing:
  rms(total) = 0.15767E+01    rms(broyden)= 0.15765E+01
  rms(prec ) = 0.16007E+01
  weight for this iteration     100.00

 Free energy of the ion-electron system (eV)
  ---------------------------------------------------
  alpha Z        PSCENC =        42.36266416
  Ewald energy   TEWEN  =      5952.89720353
  -Hartree energ DENC   =     -8142.22992348
  -exchange      EXHF   =         0.00000000
  -V(xc)+E(xc)   XCENC  =        37.15949560
  PAW double counting   =      2012.60260865    -1949.97488812
  entropy T*S    EENTRO =        -0.00000000
  eigenvalues    EBANDS =      -206.58982310
  atomic energy  EATOM  =      2236.30457717
  Solvation  Ediel_sol  =         0.00000000
  ---------------------------------------------------
  free energy    TOTEN  =       -17.46808559 eV

  energy without entropy =      -17.46808559  energy(sigma->0) =      -17.46808559


--------------------------------------------------------------------------------------------------------




--------------------------------------- Iteration      1(   6)  ---------------------------------------


    POTLOK:  cpu time    0.2419: real time    0.2420
    SETDIJ:  cpu time    0.0066: real time    0.0066
     EDDAV:  cpu time    0.8321: real time    0.8321
       DOS:  cpu time    0.0014: real time    0.0014
    CHARGE:  cpu time    0.0850: real time    0.0850
    MIXING:  cpu time    0.0078: real time    0.0078
    --------------------------------------------
      LOOP:  cpu time    1.1747: real time    1.1748

 eigenvalue-minimisations  :   880
 total energy-change (2. order) : 0.8547274E+00  (-0.2342332E+00)
 number of electron      34.0000006 magnetization 
 augmentation part        3.8518648 magnetization 

 DIPCOR: dipole corrections for dipol
 direction  3 min pos   185,
 dipolmoment           0.000000      0.000000     -0.034481 electrons x Angstroem
 Tr[quadrupol]       -79.276412

 energy correction for charged system         0.000000 eV
 dipol+quadrupol energy correction           -0.000469 eV
 added-field ion interaction          0.148931 eV  (added to PSCEN)


 Broyden mixing:
  rms(total) = 0.88759E+00    rms(broyden)= 0.88757E+00
  rms(prec ) = 0.89227E+00
  weight for this iteration     100.00

 eigenvalues of (default mixing * dielectric matrix)
  average eigenvalue GAMMA=   1.8580
  1.8580

 Free energy of the ion-electron system (eV)
  ---------------------------------------------------
  alpha Z        PSCENC =        42.51092586
  Ewald energy   TEWEN  =      5952.89720353
  -Hartree energ DENC   =     -8126.78500083
  -exchange      EXHF   =         0.00000000
  -V(xc)+E(xc)   XCENC  =        36.86520885
  PAW double counting   =      2279.97448688    -2220.43025760
  entropy T*S    EENTRO =        -0.00000000
  eigenvalues    EBANDS =      -217.95050206
  atomic energy  EATOM  =      2236.30457717
  Solvation  Ediel_sol  =         0.00000000
  ---------------------------------------------------
  free energy    TOTEN  =       -16.61335820 eV

  energy without entropy =      -16.61335820  energy(sigma->0) =      -16.61335820


--------------------------------------------------------------------------------------------------------




--------------------------------------- Iteration      1(   7)  ---------------------------------------


    POTLOK:  cpu time    0.2436: real time    0.2436
    SETDIJ:  cpu time    0.0068: real time    0.0068
     EDDAV:  cpu time    0.7770: real time    0.7771
       DOS:  cpu time    0.0002: real time    0.0002
    CHARGE:  cpu time    0.0889: real time    0.0890
    MIXING:  cpu time    0.0079: real time    0.0079
    --------------------------------------------
      LOOP:  cpu time    1.1244: real time    1.1247

 eigenvalue-minimisations  :   812
 total energy-change (2. order) :-0.6678035E-02  (-0.5630342E-01)
 number of electron      34.0000006 magnetization 
 augmentation part        3.8186721 magnetization 

 DIPCOR: dipole corrections for dipol
 direction  3 min pos   179,
 dipolmoment           0.000000      0.000000     -0.004916 electrons x Angstroem
 Tr[quadrupol]       -79.521065

 energy correction for charged system         0.000000 eV
 dipol+quadrupol energy correction           -0.000010 eV
 added-field ion interaction          0.087238 eV  (added to PSCEN)


 Broyden mixing:
  rms(total) = 0.31652E+00    rms(broyden)= 0.31651E+00
  rms(prec ) = 0.33832E+00
  weight for this iteration     100.00

 eigenvalues of (default mixing * dielectric matrix)
  average eigenvalue GAMMA=   1.5638
  0.8267  2.3009

 Free energy of the ion-electron system (eV)
  ---------------------------------------------------
  alpha Z        PSCENC =        42.44969328
  Ewald energy   TEWEN  =      5952.89720353
  -Hartree energ DENC   =     -8131.58007806
  -exchange      EXHF   =         0.00000000
  -V(xc)+E(xc)   XCENC  =        36.77611648
  PAW double counting   =      2601.21104922    -2543.78254151
  entropy T*S    EENTRO =        -0.00000000
  eigenvalues    EBANDS =      -210.89605634
  atomic energy  EATOM  =      2236.30457717
  Solvation  Ediel_sol  =         0.00000000
  ---------------------------------------------------
  free energy    TOTEN  =       -16.62003623 eV

  energy without entropy =      -16.62003623  energy(sigma->0) =      -16.62003623


--------------------------------------------------------------------------------------------------------




--------------------------------------- Iteration      1(   8)  ---------------------------------------


    POTLOK:  cpu time    0.2478: real time    0.2479
    SETDIJ:  cpu time    0.0066: real time    0.0066
     EDDAV:  cpu time    0.7963: real time    0.7963
       DOS:  cpu time    0.0002: real time    0.0002
    CHARGE:  cpu time    0.0894: real time    0.0894
    MIXING:  cpu time    0.0080: real time    0.0079
    --------------------------------------------
      LOOP:  cpu time    1.1483: real time    1.1484

 eigenvalue-minimisations  :   824
 total energy-change (2. order) :-0.5640572E-01  (-0.4365571E-01)
 number of electron      34.0000006 magnetization 
 augmentation part        3.8252094 magnetization 

 DIPCOR: dipole corrections for dipol
 direction  3 min pos   187,
 dipolmoment           0.000000      0.000000     -0.073202 electrons x Angstroem
 Tr[quadrupol]       -79.526205

 energy correction for charged system         0.000000 eV
 dipol+quadrupol energy correction           -0.002116 eV
 added-field ion interaction         -0.011420 eV  (added to PSCEN)


 Broyden mixing:
  rms(total) = 0.25580E+00    rms(broyden)= 0.25575E+00
  rms(prec ) = 0.31082E+00
  weight for this iteration     100.00

 eigenvalues of (default mixing * dielectric matrix)
  average eigenvalue GAMMA=   1.2625
  2.4353  0.9480  0.4042

 Free energy of the ion-electron system (eV)
  ---------------------------------------------------
  alpha Z        PSCENC =        42.34892809
  Ewald energy   TEWEN  =      5952.89720353
  -Hartree energ DENC   =     -8130.89476142
  -exchange      EXHF   =         0.00000000
  -V(xc)+E(xc)   XCENC  =        36.79167951
  PAW double counting   =      2717.22846440    -2660.47164097
  entropy T*S    EENTRO =        -0.00000000
  eigenvalues    EBANDS =      -210.88089226
  atomic energy  EATOM  =      2236.30457717
  Solvation  Ediel_sol  =         0.00000000
  ---------------------------------------------------
  free energy    TOTEN  =       -16.67644195 eV

  energy without entropy =      -16.67644195  energy(sigma->0) =      -16.67644195


--------------------------------------------------------------------------------------------------------




--------------------------------------- Iteration      1(   9)  ---------------------------------------


    POTLOK:  cpu time    0.2438: real time    0.2438
    SETDIJ:  cpu time    0.0066: real time    0.0066
     EDDAV:  cpu time    0.7853: real time    0.7854
       DOS:  cpu time    0.0002: real time    0.0002
    CHARGE:  cpu time    0.0878: real time    0.0878
    MIXING:  cpu time    0.0080: real time    0.0080
    --------------------------------------------
      LOOP:  cpu time    1.1318: real time    1.1319

 eigenvalue-minimisations  :   818
 total energy-change (2. order) : 0.1124677E+00  (-0.1608303E-01)
 number of electron      34.0000006 magnetization 
 augmentation part        3.8534460 magnetization 

 DIPCOR: dipole corrections for dipol
 direction  3 min pos   194,
 dipolmoment           0.000000      0.000000     -0.034199 electrons x Angstroem
 Tr[quadrupol]       -79.472616

 energy correction for charged system         0.000000 eV
 dipol+quadrupol energy correction           -0.000462 eV
 added-field ion interaction         -0.541004 eV  (added to PSCEN)


 Broyden mixing:
  rms(total) = 0.42124E-01    rms(broyden)= 0.42041E-01
  rms(prec ) = 0.44331E-01
  weight for this iteration     100.00

 eigenvalues of (default mixing * dielectric matrix)
  average eigenvalue GAMMA=   1.2941
  2.4709  1.4211  0.8907  0.3936

 Free energy of the ion-electron system (eV)
  ---------------------------------------------------
  alpha Z        PSCENC =        41.82099838
  Ewald energy   TEWEN  =      5952.89720353
  -Hartree energ DENC   =     -8129.88484359
  -exchange      EXHF   =         0.00000000
  -V(xc)+E(xc)   XCENC  =        36.79989246
  PAW double counting   =      2742.89761833    -2686.26830154
  entropy T*S    EENTRO =        -0.00000000
  eigenvalues    EBANDS =      -211.13111897
  atomic energy  EATOM  =      2236.30457717
  Solvation  Ediel_sol  =         0.00000000
  ---------------------------------------------------
  free energy    TOTEN  =       -16.56397423 eV

  energy without entropy =      -16.56397423  energy(sigma->0) =      -16.56397423


--------------------------------------------------------------------------------------------------------




--------------------------------------- Iteration      1(  10)  ---------------------------------------


    POTLOK:  cpu time    0.2419: real time    0.2420
    SETDIJ:  cpu time    0.0067: real time    0.0067
     EDDAV:  cpu time    0.7741: real time    0.7741
       DOS:  cpu time    0.0002: real time    0.0002
    CHARGE:  cpu time    0.0887: real time    0.0888
    MIXING:  cpu time    0.0081: real time    0.0081
    --------------------------------------------
      LOOP:  cpu time    1.1198: real time    1.1199

 eigenvalue-minimisations  :   794
 total energy-change (2. order) : 0.7755059E-03  (-0.2566086E-02)
 number of electron      34.0000006 magnetization 
 augmentation part        3.8520900 magnetization 

 DIPCOR: dipole corrections for dipol
 direction  3 min pos   196,
 dipolmoment           0.000000      0.000000     -0.040051 electrons x Angstroem
 Tr[quadrupol]       -79.448056

 energy correction for charged system         0.000000 eV
 dipol+quadrupol energy correction           -0.000633 eV
 added-field ion interaction         -0.812809 eV  (added to PSCEN)


 Broyden mixing:
  rms(total) = 0.13826E-01    rms(broyden)= 0.13822E-01
  rms(prec ) = 0.15859E-01
  weight for this iteration     100.00

 eigenvalues of (default mixing * dielectric matrix)
  average eigenvalue GAMMA=   1.2206
  2.4748  1.4426  0.9006  0.9006  0.3845

 Free energy of the ion-electron system (eV)
  ---------------------------------------------------
  alpha Z        PSCENC =        41.54902158
  Ewald energy   TEWEN  =      5952.89720353
  -Hartree energ DENC   =     -8130.12700523
  -exchange      EXHF   =         0.00000000
  -V(xc)+E(xc)   XCENC  =        36.83500510
  PAW double counting   =      2749.63265823    -2692.95724864
  entropy T*S    EENTRO =        -0.00000000
  eigenvalues    EBANDS =      -210.69741047
  atomic energy  EATOM  =      2236.30457717
  Solvation  Ediel_sol  =         0.00000000
  ---------------------------------------------------
  free energy    TOTEN  =       -16.56319872 eV

  energy without entropy =      -16.56319872  energy(sigma->0) =      -16.56319872


--------------------------------------------------------------------------------------------------------




--------------------------------------- Iteration      1(  11)  ---------------------------------------


    POTLOK:  cpu time    0.2436: real time    0.2437
    SETDIJ:  cpu time    0.0067: real time    0.0067
     EDDAV:  cpu time    0.7988: real time    0.7990
       DOS:  cpu time    0.0002: real time    0.0002
    CHARGE:  cpu time    0.0886: real time    0.0886
    MIXING:  cpu time    0.0081: real time    0.0081
    --------------------------------------------
      LOOP:  cpu time    1.1460: real time    1.1463

 eigenvalue-minimisations  :   830
 total energy-change (2. order) : 0.6465073E-04  (-0.1962417E-03)
 number of electron      34.0000006 magnetization 
 augmentation part        3.8492248 magnetization 

 DIPCOR: dipole corrections for dipol
 direction  3 min pos   198,
 dipolmoment           0.000000      0.000000     -0.039187 electrons x Angstroem
 Tr[quadrupol]       -79.446464

 energy correction for charged system         0.000000 eV
 dipol+quadrupol energy correction           -0.000606 eV
 added-field ion interaction         -0.970648 eV  (added to PSCEN)


 Broyden mixing:
  rms(total) = 0.82138E-02    rms(broyden)= 0.82117E-02
  rms(prec ) = 0.85364E-02
  weight for this iteration     100.00

 eigenvalues of (default mixing * dielectric matrix)
  average eigenvalue GAMMA=   1.2440
  2.3979  1.9749  0.3848  0.8671  0.8671  0.9724

 Free energy of the ion-electron system (eV)
  ---------------------------------------------------
  alpha Z        PSCENC =        41.39120982
  Ewald energy   TEWEN  =      5952.89720353
  -Hartree energ DENC   =     -8130.51195214
  -exchange      EXHF   =         0.00000000
  -V(xc)+E(xc)   XCENC  =        36.84140767
  PAW double counting   =      2748.85983020    -2692.17612325
  entropy T*S    EENTRO =        -0.00000000
  eigenvalues    EBANDS =      -210.16928706
  atomic energy  EATOM  =      2236.30457717
  Solvation  Ediel_sol  =         0.00000000
  ---------------------------------------------------
  free energy    TOTEN  =       -16.56313407 eV

  energy without entropy =      -16.56313407  energy(sigma->0) =      -16.56313407


--------------------------------------------------------------------------------------------------------




--------------------------------------- Iteration      1(  12)  ---------------------------------------


    POTLOK:  cpu time    0.2385: real time    0.2386
    SETDIJ:  cpu time    0.0117: real time    0.0117
     EDDAV:  cpu time    0.7665: real time    0.7666
       DOS:  cpu time    0.0002: real time    0.0002
    --------------------------------------------
      LOOP:  cpu time    1.0169: real time    1.0170

 eigenvalue-minimisations  :   778
 total energy-change (2. order) :-0.2833822E-04  (-0.1756430E-04)
 number of electron      34.0000006 magnetization 
 augmentation part        3.8492248 magnetization 

 DIPCOR: dipole corrections for dipol
 direction  3 min pos   199,
 dipolmoment           0.000000      0.000000     -0.038754 electrons x Angstroem
 Tr[quadrupol]       -79.445903

 energy correction for charged system         0.000000 eV
 dipol+quadrupol energy correction           -0.000593 eV
 added-field ion interaction         -1.046654 eV  (added to PSCEN)


 Free energy of the ion-electron system (eV)
  ---------------------------------------------------
  alpha Z        PSCENC =        41.31521733
  Ewald energy   TEWEN  =      5952.89720353
  -Hartree energ DENC   =     -8130.75411607
  -exchange      EXHF   =         0.00000000
  -V(xc)+E(xc)   XCENC  =        36.84613292
  PAW double counting   =      2746.49589464    -2689.80050251
  entropy T*S    EENTRO =        -0.00000000
  eigenvalues    EBANDS =      -209.86756943
  atomic energy  EATOM  =      2236.30457717
  Solvation  Ediel_sol  =         0.00000000
  ---------------------------------------------------
  free energy    TOTEN  =       -16.56316241 eV

  energy without entropy =      -16.56316241  energy(sigma->0) =      -16.56316241


--------------------------------------------------------------------------------------------------------




 average (electrostatic) potential at core
  the test charge radii are     0.9406  1.0178  1.2059
  (the norm of the test charge is              1.0000)
       1 -97.7940       2 -67.9463       3 -75.1168       4 -75.0687
 
 
 
 E-fermi :  -1.4566     XC(G=0):  -4.3454     alpha+bet : -3.9544


 k-point     1 :       0.0000    0.0000    0.0000
  band No.  band energies     occupation 
      1     -17.6290      2.00000
      2     -17.4927      2.00000
      3      -8.1183      2.00000
      4      -6.8782      2.00000
      5      -6.8782      2.00000
      6      -6.8686      2.00000
      7      -5.8567      2.00000
      8      -5.8567      2.00000
      9      -4.4507      2.00000
     10      -4.4507      2.00000
     11      -3.8185      2.00000
     12      -2.8548      2.00000
     13      -2.8548      2.00000
     14      -2.7585      2.00000
     15      -2.1672      2.00000
     16      -2.1672      2.00000
     17      -2.0837      2.00000
     18      -0.2839      0.00000
     19      -0.2839      0.00000
     20       2.1255      0.00000
     21       3.1998      0.00000
     22       3.8051      0.00000

 k-point     2 :       0.2500    0.0000    0.0000
  band No.  band energies     occupation 
      1     -17.3764      2.00000
      2     -17.2793      2.00000
      3      -7.7466      2.00000
      4      -7.0581      2.00000
      5      -6.7515      2.00000
      6      -6.6323      2.00000
      7      -6.2868      2.00000
      8      -5.5169      2.00000
      9      -5.1535      2.00000
     10      -4.7192      2.00000
     11      -4.4653      2.00000
     12      -3.1147      2.00000
     13      -2.9281      2.00000
     14      -2.9177      2.00000
     15      -2.2790      2.00000
     16      -2.2530      2.00000
     17      -1.9802      2.00000
     18      -0.2096      0.00000
     19       0.2700      0.00000
     20       3.5901      0.00000
     21       3.9638      0.00000
     22       4.4699      0.00000

 k-point     3 :       0.5000    0.0000    0.0000
  band No.  band energies     occupation 
      1     -17.1523      2.00000
      2     -16.9989      2.00000
      3      -7.8534      2.00000
      4      -7.5567      2.00000
      5      -6.5735      2.00000
      6      -6.5497      2.00000
      7      -6.1388      2.00000
      8      -5.8170      2.00000
      9      -4.7535      2.00000
     10      -4.5360      2.00000
     11      -3.5173      2.00000
     12      -3.3329      2.00000
     13      -3.2523      2.00000
     14      -3.0016      2.00000
     15      -2.9434      2.00000
     16      -2.9336      2.00000
     17      -2.4665      2.00000
     18      -0.2267      0.00000
     19       1.2170      0.00000
     20       2.3341      0.00000
     21       4.5319      0.00000
     22       4.8205      0.00000

 k-point     4 :      -0.2500   -0.0000    0.0000
  band No.  band energies     occupation 
      1     -17.3764      2.00000
      2     -17.2793      2.00000
      3      -7.7466      2.00000
      4      -7.0581      2.00000
      5      -6.7515      2.00000
      6      -6.6323      2.00000
      7      -6.2868      2.00000
      8      -5.5169      2.00000
      9      -5.1535      2.00000
     10      -4.7192      2.00000
     11      -4.4653      2.00000
     12      -3.1147      2.00000
     13      -2.9281      2.00000
     14      -2.9177      2.00000
     15      -2.2790      2.00000
     16      -2.2530      2.00000
     17      -1.9802      2.00000
     18      -0.2096      0.00000
     19       0.2700      0.00000
     20       3.5901      0.00000
     21       3.9638      0.00000
     22       4.4699      0.00000

 k-point     5 :      -0.0000    0.2500    0.0000
  band No.  band energies     occupation 
      1     -17.3764      2.00000
      2     -17.2793      2.00000
      3      -7.7466      2.00000
      4      -7.0581      2.00000
      5      -6.7515      2.00000
      6      -6.6323      2.00000
      7      -6.2868      2.00000
      8      -5.5169      2.00000
      9      -5.1535      2.00000
     10      -4.7192      2.00000
     11      -4.4653      2.00000
     12      -3.1147      2.00000
     13      -2.9281      2.00000
     14      -2.9177      2.00000
     15      -2.2790      2.00000
     16      -2.2530      2.00000
     17      -1.9802      2.00000
     18      -0.2096      0.00000
     19       0.2700      0.00000
     20       3.5901      0.00000
     21       3.9638      0.00000
     22       4.4699      0.00000

 k-point     6 :       0.2500    0.2500    0.0000
  band No.  band energies     occupation 
      1     -17.1552      2.00000
      2     -17.0013      2.00000
      3      -7.5373      2.00000
      4      -7.0813      2.00000
      5      -7.0120      2.00000
      6      -6.3166      2.00000
      7      -6.2118      2.00000
      8      -5.8817      2.00000
      9      -5.3783      2.00000
     10      -5.1471      2.00000
     11      -3.8220      2.00000
     12      -3.4336      2.00000
     13      -3.2030      2.00000
     14      -2.9921      2.00000
     15      -2.9365      2.00000
     16      -2.3428      2.00000
     17      -2.0261      2.00000
     18      -0.2783      0.00000
     19       1.2961      0.00000
     20       3.0576      0.00000
     21       4.5823      0.00000
     22       5.5388      0.00000

 k-point     7 :       0.5000    0.2500    0.0000
  band No.  band energies     occupation 
      1     -17.1552      2.00000
      2     -17.0013      2.00000
      3      -7.5373      2.00000
      4      -7.0813      2.00000
      5      -7.0120      2.00000
      6      -6.3166      2.00000
      7      -6.2118      2.00000
      8      -5.8817      2.00000
      9      -5.3783      2.00000
     10      -5.1471      2.00000
     11      -3.8220      2.00000
     12      -3.4336      2.00000
     13      -3.2030      2.00000
     14      -2.9921      2.00000
     15      -2.9365      2.00000
     16      -2.3428      2.00000
     17      -2.0261      2.00000
     18      -0.2783      0.00000
     19       1.2961      0.00000
     20       3.0576      0.00000
     21       4.5823      0.00000
     22       5.5388      0.00000

 k-point     8 :      -0.2500    0.2500    0.0000
  band No.  band energies     occupation 
      1     -17.3764      2.00000
      2     -17.2793      2.00000
      3      -7.7466      2.00000
      4      -7.0581      2.00000
      5      -6.7515      2.00000
      6      -6.6323      2.00000
      7      -6.2868      2.00000
      8      -5.5169      2.00000
      9      -5.1535      2.00000
     10      -4.7192      2.00000
     11      -4.4653      2.00000
     12      -3.1147      2.00000
     13      -2.9281      2.00000
     14      -2.9177      2.00000
     15      -2.2790      2.00000
     16      -2.2530      2.00000
     17      -1.9802      2.00000
     18      -0.2096      0.00000
     19       0.2700      0.00000
     20       3.5901      0.00000
     21       3.9638      0.00000
     22       4.4699      0.00000

 k-point     9 :      -0.0000    0.5000    0.0000
  band No.  band energies     occupation 
      1     -17.1523      2.00000
      2     -16.9989      2.00000
      3      -7.8534      2.00000
      4      -7.5567      2.00000
      5      -6.5735      2.00000
      6      -6.5497      2.00000
      7      -6.1388      2.00000
      8      -5.8170      2.00000
      9      -4.7535      2.00000
     10      -4.5360      2.00000
     11      -3.5173      2.00000
     12      -3.3329      2.00000
     13      -3.2523      2.00000
     14      -3.0016      2.00000
     15      -2.9434      2.00000
     16      -2.9336      2.00000
     17      -2.4665      2.00000
     18      -0.2267      0.00000
     19       1.2170      0.00000
     20       2.3341      0.00000
     21       4.5319      0.00000
     22       4.8205      0.00000

 k-point    10 :       0.2500    0.5000    0.0000
  band No.  band energies     occupation 
      1     -17.1552      2.00000
      2     -17.0013      2.00000
      3      -7.5373      2.00000
      4      -7.0813      2.00000
      5      -7.0120      2.00000
      6      -6.3166      2.00000
      7      -6.2118      2.00000
      8      -5.8817      2.00000
      9      -5.3783      2.00000
     10      -5.1471      2.00000
     11      -3.8220      2.00000
     12      -3.4336      2.00000
     13      -3.2030      2.00000
     14      -2.9921      2.00000
     15      -2.9365      2.00000
     16      -2.3428      2.00000
     17      -2.0261      2.00000
     18      -0.2783      0.00000
     19       1.2961      0.00000
     20       3.0576      0.00000
     21       4.5823      0.00000
     22       5.5387      0.00000

 k-point    11 :       0.5000    0.5000    0.0000
  band No.  band energies     occupation 
      1     -17.1523      2.00000
      2     -16.9989      2.00000
      3      -7.8535      2.00000
      4      -7.5567      2.00000
      5      -6.5735      2.00000
      6      -6.5497      2.00000
      7      -6.1388      2.00000
      8      -5.8170      2.00000
      9      -4.7535      2.00000
     10      -4.5360      2.00000
     11      -3.5173      2.00000
     12      -3.3329      2.00000
     13      -3.2522      2.00000
     14      -3.0016      2.00000
     15      -2.9434      2.00000
     16      -2.9336      2.00000
     17      -2.4666      2.00000
     18      -0.2267      0.00000
     19       1.2170      0.00000
     20       2.3341      0.00000
     21       4.5319      0.00000
     22       4.8205      0.00000

 k-point    12 :      -0.2500    0.5000    0.0000
  band No.  band energies     occupation 
      1     -17.1552      2.00000
      2     -17.0013      2.00000
      3      -7.5373      2.00000
      4      -7.0813      2.00000
      5      -7.0120      2.00000
      6      -6.3166      2.00000
      7      -6.2118      2.00000
      8      -5.8817      2.00000
      9      -5.3783      2.00000
     10      -5.1471      2.00000
     11      -3.8220      2.00000
     12      -3.4336      2.00000
     13      -3.2030      2.00000
     14      -2.9921      2.00000
     15      -2.9365      2.00000
     16      -2.3428      2.00000
     17      -2.0261      2.00000
     18      -0.2783      0.00000
     19       1.2961      0.00000
     20       3.0576      0.00000
     21       4.5823      0.00000
     22       5.5388      0.00000

 k-point    13 :       0.0000   -0.2500    0.0000
  band No.  band energies     occupation 
      1     -17.3764      2.00000
      2     -17.2793      2.00000
      3      -7.7466      2.00000
      4      -7.0581      2.00000
      5      -6.7515      2.00000
      6      -6.6323      2.00000
      7      -6.2868      2.00000
      8      -5.5169      2.00000
      9      -5.1535      2.00000
     10      -4.7192      2.00000
     11      -4.4653      2.00000
     12      -3.1147      2.00000
     13      -2.9281      2.00000
     14      -2.9177      2.00000
     15      -2.2790      2.00000
     16      -2.2530      2.00000
     17      -1.9802      2.00000
     18      -0.2096      0.00000
     19       0.2700      0.00000
     20       3.5901      0.00000
     21       3.9638      0.00000
     22       4.4699      0.00000

 k-point    14 :       0.2500   -0.2500    0.0000
  band No.  band energies     occupation 
      1     -17.3764      2.00000
      2     -17.2793      2.00000
      3      -7.7466      2.00000
      4      -7.0581      2.00000
      5      -6.7515      2.00000
      6      -6.6323      2.00000
      7      -6.2868      2.00000
      8      -5.5169      2.00000
      9      -5.1535      2.00000
     10      -4.7192      2.00000
     11      -4.4653      2.00000
     12      -3.1147      2.00000
     13      -2.9281      2.00000
     14      -2.9177      2.00000
     15      -2.2790      2.00000
     16      -2.2530      2.00000
     17      -1.9802      2.00000
     18      -0.2096      0.00000
     19       0.2700      0.00000
     20       3.5901      0.00000
     21       3.9638      0.00000
     22       4.4699      0.00000

 k-point    15 :       0.5000   -0.2500    0.0000
  band No.  band energies     occupation 
      1     -17.1552      2.00000
      2     -17.0013      2.00000
      3      -7.5373      2.00000
      4      -7.0813      2.00000
      5      -7.0120      2.00000
      6      -6.3166      2.00000
      7      -6.2118      2.00000
      8      -5.8817      2.00000
      9      -5.3783      2.00000
     10      -5.1471      2.00000
     11      -3.8220      2.00000
     12      -3.4336      2.00000
     13      -3.2030      2.00000
     14      -2.9921      2.00000
     15      -2.9365      2.00000
     16      -2.3428      2.00000
     17      -2.0261      2.00000
     18      -0.2783      0.00000
     19       1.2961      0.00000
     20       3.0576      0.00000
     21       4.5823      0.00000
     22       5.5388      0.00000

 k-point    16 :      -0.2500   -0.2500    0.0000
  band No.  band energies     occupation 
      1     -17.1552      2.00000
      2     -17.0013      2.00000
      3      -7.5373      2.00000
      4      -7.0813      2.00000
      5      -7.0120      2.00000
      6      -6.3166      2.00000
      7      -6.2118      2.00000
      8      -5.8817      2.00000
      9      -5.3783      2.00000
     10      -5.1471      2.00000
     11      -3.8220      2.00000
     12      -3.4336      2.00000
     13      -3.2030      2.00000
     14      -2.9921      2.00000
     15      -2.9365      2.00000
     16      -2.3428      2.00000
     17      -2.0261      2.00000
     18      -0.2783      0.00000
     19       1.2961      0.00000
     20       3.0576      0.00000
     21       4.5823      0.00000
     22       5.5388      0.00000


--------------------------------------------------------------------------------------------------------


 soft charge-density along one line, spin component           1
         0         1         2         3         4         5         6         7         8         9
 total charge-density along one line
 
 pseudopotential strength for first ion, spin component:           1
 49.278  51.717  -0.000   0.038   0.000  -0.000   0.047   0.000
 51.717  54.280  -0.000   0.040   0.000  -0.000   0.050   0.000
 -0.000  -0.000   9.299   0.000  -0.000  11.527   0.000  -0.000
  0.038   0.040   0.000   9.298  -0.000   0.000  11.525  -0.000
  0.000   0.000  -0.000  -0.000   9.299  -0.000  -0.000  11.527
 -0.000  -0.000  11.527   0.000  -0.000  14.303   0.000  -0.000
  0.047   0.050   0.000  11.525  -0.000   0.000  14.302  -0.000
  0.000   0.000  -0.000  -0.000  11.527  -0.000  -0.000  14.303
 total augmentation occupancy for first ion, spin component:           1
  8.313  -6.288  -0.000  -3.002   0.000   0.000   1.250  -0.000
 -6.288   6.216   0.000   2.811  -0.000  -0.000  -1.237   0.000
 -0.000   0.000   3.544   0.000  -0.000  -1.036  -0.000  -0.000
 -3.002   2.811   0.000   3.339  -0.000  -0.000  -0.909   0.000
  0.000  -0.000  -0.000  -0.000   3.544  -0.000   0.000  -1.036
  0.000  -0.000  -1.036  -0.000  -0.000   0.466   0.000   0.000
  1.250  -1.237  -0.000  -0.909   0.000   0.000   0.419  -0.000
 -0.000   0.000  -0.000   0.000  -1.036   0.000  -0.000   0.466


------------------------ aborting loop because EDIFF is reached ----------------------------------------


    CHARGE:  cpu time    0.0893: real time    0.0893
    FORLOC:  cpu time    0.0178: real time    0.0178
    FORNL :  cpu time    0.1018: real time    0.1018
    STRESS:  cpu time    0.5364: real time    0.5365
    FORCOR:  cpu time    0.2421: real time    0.2421
    FORHAR:  cpu time    0.0482: real time    0.0482
    MIXING:  cpu time    0.0079: real time    0.0079
    OFIELD:  cpu time    0.0000: real time    0.0000

 ---------------------------------------------------------------------------------------------

         DFTD3 V3.0 Rev 1        
 IVDW         = 11
 DF pbe       
 parameters
 VDW_S6       =    1.0000
 VDW_S8       =    0.7220
 VDW_SR       =    1.2170
 rs18     =    1.0000
 alpha6   =   14.0000
 alpha8   =   16.0000
 k1-k3    =   16.0000    1.3333   -4.0000
 VDW_RADIUS   =   50.2022 A
 VDW_CNRADIUS =   21.1671 A
 Edisp (eV)   -1.23638

 E6    (eV) :    -0.3570
 E8    (eV) :    -0.8794
 % E8        : 71.12
    FORVDW:  cpu time    0.0177: real time    0.0177

  FORCE on cell =-STRESS in cart. coord.  units (eV):
  Direction    XX          YY          ZZ          XY          YZ          ZX
  --------------------------------------------------------------------------------------
  Alpha Z    42.36246    42.36246    42.36246
  Ewald    7469.39203  7469.39096 -8985.88629    -0.00013     0.00000    -0.00013
  Hartree  7948.52495  7948.52460 -7764.87619    -0.00004    -0.00001    -0.00004
  E(xc)    -141.02240  -141.02241  -141.47957    -0.00000    -0.00000    -0.00000
  Local  -16045.18558-16045.18426 16117.01458     0.00022    -0.00006     0.00017
  n-local   141.92157   141.92158   143.38308    -0.00000     0.00004    -0.00001
  augment    78.81542    78.81540    79.70729    -0.00005     0.00000    -0.00001
  Kinetic   505.88225   505.88242   509.77679     0.00000     0.00002    -0.00001
  Fock        0.00000     0.00000     0.00000     0.00000     0.00000     0.00000
  vdW        -0.77824    -0.77824    -0.23830     0.00000     0.00000    -0.00000
  -------------------------------------------------------------------------------------
  Total      -0.08754    -0.08748    -0.23616    -0.00001    -0.00000    -0.00002
  in kB      -0.61210    -0.61170    -1.65134    -0.00004    -0.00002    -0.00017
  external pressure =       -0.96 kB  Pullay stress =        0.00 kB


 VOLUME and BASIS-vectors are now :
 -----------------------------------------------------------------------------
  energy-cutoff  :      300.00
  volume of cell :      229.13
      direct lattice vectors                 reciprocal lattice vectors
     3.636944978 -0.036443352  0.000000000     0.276518965  0.155975300  0.000000000
    -1.786911496  3.167904907  0.000000000     0.003181054  0.317460370  0.000000000
     0.000000000  0.000000000 20.000000000     0.000000000  0.000000000  0.050000000

  length of vectors
     3.637127560  3.637124440 20.000000000     0.317476034  0.317476307  0.050000000


 FORCES acting on ions
    electron-ion (+dipol)            ewald-force                    non-local-force                 convergence-correction
 -----------------------------------------------------------------------------------------------
   0.172E-03 -.128E-03 0.991E+03   -.703E-04 -.899E-05 -.997E+03   -.818E-04 0.121E-03 0.559E+01   -.459E-04 0.387E-04 -.963E-01
   0.860E-04 0.441E-04 -.100E+04   -.130E-03 0.356E-04 0.100E+04   0.163E-04 -.342E-04 -.272E+01   0.326E-04 -.442E-04 0.114E+00
   -.407E-04 0.248E-04 -.568E+03   0.109E-03 -.775E-04 0.561E+03   0.317E-04 -.198E-04 0.653E+01   -.775E-04 0.601E-04 0.170E+00
   0.216E-04 0.134E-04 0.573E+03   0.909E-04 0.508E-04 -.567E+03   0.232E-04 0.211E-04 -.642E+01   -.142E-03 -.710E-04 -.691E-01
 -----------------------------------------------------------------------------------------------
   0.239E-03 -.461E-04 -.310E+01   0.453E-15 0.113E-13 0.000E+00   -.106E-04 0.885E-04 0.298E+01   -.233E-03 -.164E-04 0.118E+00
 
 
 POSITION                                       TOTAL-FORCE (eV/Angst)
 -----------------------------------------------------------------------------------
     -0.89327      1.58383      3.36693        -0.000025      0.000016      0.002190
     -0.89327      1.58382      7.71448         0.000006     -0.000005     -0.004970
      0.91468      0.51571      6.20974         0.000024     -0.000019     -0.020007
      0.93572      2.61550      4.71353        -0.000005      0.000008      0.022788
 -----------------------------------------------------------------------------------
    total drift:                               -0.000005      0.000026     -0.004510


--------------------------------------------------------------------------------------------------------



  FREE ENERGIE OF THE ION-ELECTRON SYSTEM (eV)
  ---------------------------------------------------
  free  energy   TOTEN  =       -17.79954304 eV

  energy  without entropy=      -17.79954304  energy(sigma->0) =      -17.79954304
 


--------------------------------------------------------------------------------------------------------


    POTLOK:  cpu time    0.2440: real time    0.2440


--------------------------------------------------------------------------------------------------------


 Quasi-Newton relaxation of ions (Broydens 2nd method)
  g(Force)  = 0.458E-04   g(Stress)= 0.923E-04

 Reset! Starting new Quasi-Newton update for ions 


--------------------------------------------------------------------------------------------------------


    WAVPRE:  cpu time    0.8845: real time    0.8849
    FEWALD:  cpu time    0.0001: real time    0.0001
    GENKIN:  cpu time    0.0217: real time    0.0217
    ORTHCH:  cpu time    0.0181: real time    0.0181
     LOOP+:  cpu time   14.6175: real time   14.6199


--------------------------------------- Iteration      2(   1)  ---------------------------------------


    POTLOK:  cpu time    0.2473: real time    0.2475
    SETDIJ:  cpu time    0.0069: real time    0.0069
     EDDAV:  cpu time    0.7658: real time    0.7662
       DOS:  cpu time    0.0002: real time    0.0002
    CHARGE:  cpu time    0.0877: real time    0.0877
    MIXING:  cpu time    0.0080: real time    0.0080
    --------------------------------------------
      LOOP:  cpu time    1.1159: real time    1.1166

 eigenvalue-minimisations  :   770
 total energy-change (2. order) : 0.4969502E-03  (-0.2516783E-02)
 number of electron      34.0000006 magnetization 
 augmentation part        3.8417418 magnetization 

 DIPCOR: dipole corrections for dipol
 direction  3 min pos   199,
 dipolmoment           0.000000      0.000000     -0.038179 electrons x Angstroem
 Tr[quadrupol]       -79.368253

 energy correction for charged system         0.000000 eV
 dipol+quadrupol energy correction           -0.000576 eV
 added-field ion interaction         -1.032206 eV  (added to PSCEN)


 Broyden mixing:
  rms(total) = 0.12213E-01    rms(broyden)= 0.12208E-01
  rms(prec ) = 0.13054E-01
  weight for this iteration     100.00

 Free energy of the ion-electron system (eV)
  ---------------------------------------------------
  alpha Z        PSCENC =        41.37442454
  Ewald energy   TEWEN  =      5962.29840978
[...]
  band No.  band energies     occupation 
      1     -17.1309      2.00000
      2     -16.9851      2.00000
      3      -7.8425      2.00000
      4      -7.5435      2.00000
      5      -6.5583      2.00000
      6      -6.5373      2.00000
      7      -6.1261      2.00000
      8      -5.7994      2.00000
      9      -4.7428      2.00000
     10      -4.5201      2.00000
     11      -3.5019      2.00000
     12      -3.3146      2.00000
     13      -3.2318      2.00000
     14      -2.9851      2.00000
     15      -2.9252      2.00000
     16      -2.9150      2.00000
     17      -2.4461      2.00000
     18      -0.2028      0.00000
     19       1.2366      0.00000
     20       2.3579      0.00000
     21       4.5469      0.00000
     22       4.8432      0.00000

 k-point     4 :      -0.2500   -0.0000    0.0000
  band No.  band energies     occupation 
      1     -17.3570      2.00000
      2     -17.2652      2.00000
      3      -7.7342      2.00000
      4      -7.0447      2.00000
      5      -6.7373      2.00000
      6      -6.6209      2.00000
      7      -6.2713      2.00000
      8      -5.4975      2.00000
      9      -5.1399      2.00000
     10      -4.7049      2.00000
     11      -4.4547      2.00000
     12      -3.0991      2.00000
     13      -2.9109      2.00000
     14      -2.9002      2.00000
     15      -2.2605      2.00000
     16      -2.2319      2.00000
     17      -1.9578      2.00000
     18      -0.1854      0.00000
     19       0.2926      0.00000
     20       3.6107      0.00000
     21       3.9843      0.00000
     22       4.4935      0.00000

 k-point     5 :      -0.0000    0.2500    0.0000
  band No.  band energies     occupation 
      1     -17.3563      2.00000
      2     -17.2645      2.00000
      3      -7.7325      2.00000
      4      -7.0458      2.00000
      5      -6.7359      2.00000
      6      -6.6193      2.00000
      7      -6.2721      2.00000
      8      -5.4998      2.00000
      9      -5.1424      2.00000
     10      -4.7097      2.00000
     11      -4.4505      2.00000
     12      -3.0993      2.00000
     13      -2.9130      2.00000
     14      -2.8998      2.00000
     15      -2.2589      2.00000
     16      -2.2305      2.00000
     17      -1.9575      2.00000
     18      -0.1875      0.00000
     19       0.2961      0.00000
     20       3.6132      0.00000
     21       3.9851      0.00000
     22       4.4946      0.00000

 k-point     6 :       0.2500    0.2500    0.0000
  band No.  band energies     occupation 
      1     -17.1332      2.00000
      2     -16.9866      2.00000
      3      -7.5255      2.00000
      4      -7.0685      2.00000
      5      -6.9978      2.00000
      6      -6.2998      2.00000
      7      -6.2004      2.00000
      8      -5.8668      2.00000
      9      -5.3658      2.00000
     10      -5.1323      2.00000
     11      -3.8068      2.00000
     12      -3.4190      2.00000
     13      -3.1858      2.00000
     14      -2.9741      2.00000
     15      -2.9204      2.00000
     16      -2.3211      2.00000
     17      -2.0023      2.00000
     18      -0.2536      0.00000
     19       1.3198      0.00000
     20       3.0797      0.00000
     21       4.5998      0.00000
     22       5.5587      0.00000

 k-point     7 :       0.5000    0.2500    0.0000
  band No.  band energies     occupation 
      1     -17.1339      2.00000
      2     -16.9875      2.00000
      3      -7.5222      2.00000
      4      -7.0648      2.00000
      5      -7.0020      2.00000
      6      -6.2990      2.00000
      7      -6.1995      2.00000
      8      -5.8689      2.00000
      9      -5.3674      2.00000
     10      -5.1340      2.00000
     11      -3.8072      2.00000
     12      -3.4174      2.00000
     13      -3.1884      2.00000
     14      -2.9740      2.00000
     15      -2.9205      2.00000
     16      -2.3190      2.00000
     17      -2.0034      2.00000
     18      -0.2526      0.00000
     19       1.3157      0.00000
     20       3.0818      0.00000
     21       4.6018      0.00000
     22       5.5603      0.00000

 k-point     8 :      -0.2500    0.2500    0.0000
  band No.  band energies     occupation 
      1     -17.3570      2.00000
      2     -17.2652      2.00000
      3      -7.7341      2.00000
      4      -7.0448      2.00000
      5      -6.7373      2.00000
      6      -6.6209      2.00000
      7      -6.2713      2.00000
      8      -5.4975      2.00000
      9      -5.1400      2.00000
     10      -4.7050      2.00000
     11      -4.4546      2.00000
     12      -3.0991      2.00000
     13      -2.9109      2.00000
     14      -2.9002      2.00000
     15      -2.2605      2.00000
     16      -2.2319      2.00000
     17      -1.9578      2.00000
     18      -0.1854      0.00000
     19       0.2927      0.00000
     20       3.6107      0.00000
     21       3.9843      0.00000
     22       4.4935      0.00000

 k-point     9 :      -0.0000    0.5000    0.0000
  band No.  band energies     occupation 
      1     -17.1296      2.00000
      2     -16.9833      2.00000
      3      -7.8413      2.00000
      4      -7.5441      2.00000
      5      -6.5571      2.00000
      6      -6.5390      2.00000
      7      -6.1254      2.00000
      8      -5.8034      2.00000
      9      -4.7398      2.00000
     10      -4.5222      2.00000
     11      -3.5046      2.00000
     12      -3.3131      2.00000
     13      -3.2350      2.00000
     14      -2.9868      2.00000
     15      -2.9227      2.00000
     16      -2.9105      2.00000
     17      -2.4447      2.00000
     18      -0.2049      0.00000
     19       1.2449      0.00000
     20       2.3541      0.00000
     21       4.5470      0.00000
     22       4.8377      0.00000

 k-point    10 :       0.2500    0.5000    0.0000
  band No.  band energies     occupation 
      1     -17.1332      2.00000
      2     -16.9865      2.00000
      3      -7.5255      2.00000
      4      -7.0686      2.00000
      5      -6.9977      2.00000
      6      -6.2999      2.00000
      7      -6.2004      2.00000
      8      -5.8668      2.00000
      9      -5.3658      2.00000
     10      -5.1322      2.00000
     11      -3.8067      2.00000
     12      -3.4191      2.00000
     13      -3.1857      2.00000
     14      -2.9741      2.00000
     15      -2.9204      2.00000
     16      -2.3211      2.00000
     17      -2.0023      2.00000
     18      -0.2536      0.00000
     19       1.3199      0.00000
     20       3.0796      0.00000
     21       4.5998      0.00000
     22       5.5587      0.00000

 k-point    11 :       0.5000    0.5000    0.0000
  band No.  band energies     occupation 
      1     -17.1309      2.00000
      2     -16.9851      2.00000
      3      -7.8425      2.00000
      4      -7.5435      2.00000
      5      -6.5583      2.00000
      6      -6.5373      2.00000
      7      -6.1261      2.00000
      8      -5.7995      2.00000
      9      -4.7428      2.00000
     10      -4.5202      2.00000
     11      -3.5020      2.00000
     12      -3.3146      2.00000
     13      -3.2319      2.00000
     14      -2.9851      2.00000
     15      -2.9251      2.00000
     16      -2.9149      2.00000
     17      -2.4461      2.00000
     18      -0.2029      0.00000
     19       1.2368      0.00000
     20       2.3578      0.00000
     21       4.5469      0.00000
     22       4.8431      0.00000

 k-point    12 :      -0.2500    0.5000    0.0000
  band No.  band energies     occupation 
      1     -17.1332      2.00000
      2     -16.9865      2.00000
      3      -7.5255      2.00000
      4      -7.0686      2.00000
      5      -6.9977      2.00000
      6      -6.2999      2.00000
      7      -6.2004      2.00000
      8      -5.8668      2.00000
      9      -5.3658      2.00000
     10      -5.1322      2.00000
     11      -3.8067      2.00000
     12      -3.4191      2.00000
     13      -3.1857      2.00000
     14      -2.9741      2.00000
     15      -2.9204      2.00000
     16      -2.3211      2.00000
     17      -2.0023      2.00000
     18      -0.2536      0.00000
     19       1.3199      0.00000
     20       3.0796      0.00000
     21       4.5998      0.00000
     22       5.5587      0.00000

 k-point    13 :       0.0000   -0.2500    0.0000
  band No.  band energies     occupation 
      1     -17.3563      2.00000
      2     -17.2645      2.00000
      3      -7.7325      2.00000
      4      -7.0458      2.00000
      5      -6.7359      2.00000
      6      -6.6193      2.00000
      7      -6.2721      2.00000
      8      -5.4998      2.00000
      9      -5.1424      2.00000
     10      -4.7097      2.00000
     11      -4.4505      2.00000
     12      -3.0993      2.00000
     13      -2.9130      2.00000
     14      -2.8998      2.00000
     15      -2.2589      2.00000
     16      -2.2305      2.00000
     17      -1.9575      2.00000
     18      -0.1875      0.00000
     19       0.2961      0.00000
     20       3.6132      0.00000
     21       3.9851      0.00000
     22       4.4946      0.00000

 k-point    14 :       0.2500   -0.2500    0.0000
  band No.  band energies     occupation 
      1     -17.3570      2.00000
      2     -17.2652      2.00000
      3      -7.7341      2.00000
      4      -7.0448      2.00000
      5      -6.7373      2.00000
      6      -6.6209      2.00000
      7      -6.2713      2.00000
      8      -5.4975      2.00000
      9      -5.1400      2.00000
     10      -4.7050      2.00000
     11      -4.4546      2.00000
     12      -3.0991      2.00000
     13      -2.9109      2.00000
     14      -2.9002      2.00000
     15      -2.2605      2.00000
     16      -2.2319      2.00000
     17      -1.9578      2.00000
     18      -0.1854      0.00000
     19       0.2927      0.00000
     20       3.6107      0.00000
     21       3.9843      0.00000
     22       4.4935      0.00000

 k-point    15 :       0.5000   -0.2500    0.0000
  band No.  band energies     occupation 
      1     -17.1339      2.00000
      2     -16.9875      2.00000
      3      -7.5222      2.00000
      4      -7.0648      2.00000
      5      -7.0020      2.00000
      6      -6.2990      2.00000
      7      -6.1995      2.00000
      8      -5.8689      2.00000
      9      -5.3674      2.00000
     10      -5.1340      2.00000
     11      -3.8072      2.00000
     12      -3.4174      2.00000
     13      -3.1884      2.00000
     14      -2.9740      2.00000
     15      -2.9205      2.00000
     16      -2.3190      2.00000
     17      -2.0034      2.00000
     18      -0.2526      0.00000
     19       1.3157      0.00000
     20       3.0818      0.00000
     21       4.6018      0.00000
     22       5.5603      0.00000

 k-point    16 :      -0.2500   -0.2500    0.0000
  band No.  band energies     occupation 
      1     -17.1332      2.00000
      2     -16.9866      2.00000
      3      -7.5255      2.00000
      4      -7.0685      2.00000
      5      -6.9978      2.00000
      6      -6.2998      2.00000
      7      -6.2004      2.00000
      8      -5.8668      2.00000
      9      -5.3658      2.00000
     10      -5.1323      2.00000
     11      -3.8068      2.00000
     12      -3.4190      2.00000
     13      -3.1858      2.00000
     14      -2.9741      2.00000
     15      -2.9204      2.00000
     16      -2.3211      2.00000
     17      -2.0023      2.00000
     18      -0.2536      0.00000
     19       1.3198      0.00000
     20       3.0797      0.00000
     21       4.5998      0.00000
     22       5.5587      0.00000


--------------------------------------------------------------------------------------------------------


 soft charge-density along one line, spin component           1
         0         1         2         3         4         5         6         7         8         9
 total charge-density along one line
 
 pseudopotential strength for first ion, spin component:           1
 49.268  51.707  -0.000   0.038  -0.000  -0.000   0.047  -0.000
 51.707  54.269  -0.000   0.040  -0.000  -0.000   0.049  -0.000
 -0.000  -0.000   9.298  -0.000   0.000  11.525  -0.000   0.000
  0.038   0.040  -0.000   9.297  -0.000  -0.000  11.524  -0.000
 -0.000  -0.000   0.000  -0.000   9.298   0.000  -0.000  11.525
 -0.000  -0.000  11.525  -0.000   0.000  14.302  -0.000   0.000
  0.047   0.049  -0.000  11.524  -0.000  -0.000  14.300  -0.000
 -0.000  -0.000   0.000  -0.000  11.525   0.000  -0.000  14.302
 total augmentation occupancy for first ion, spin component:           1
  8.337  -6.317   0.005  -3.005   0.000  -0.003   1.253  -0.000
 -6.317   6.248  -0.005   2.815  -0.000   0.002  -1.241   0.000
  0.005  -0.005   3.540  -0.002   0.000  -1.034   0.001  -0.000
 -3.005   2.815  -0.002   3.338  -0.000   0.001  -0.909   0.000
  0.000  -0.000   0.000  -0.000   3.542  -0.000   0.000  -1.036
 -0.003   0.002  -1.034   0.001  -0.000   0.467  -0.001   0.000
  1.253  -1.241   0.001  -0.909   0.000  -0.001   0.419  -0.000
 -0.000   0.000  -0.000   0.000  -1.036   0.000  -0.000   0.467


------------------------ aborting loop because EDIFF is reached ----------------------------------------


    CHARGE:  cpu time    0.0922: real time    0.0922
    FORLOC:  cpu time    0.0179: real time    0.0179
    FORNL :  cpu time    0.0994: real time    0.0994
    STRESS:  cpu time    0.5300: real time    0.5300
    FORCOR:  cpu time    0.2264: real time    0.2284
    FORHAR:  cpu time    0.0466: real time    0.0466
    MIXING:  cpu time    0.0112: real time    0.0112
    OFIELD:  cpu time    0.0001: real time    0.0001

 ---------------------------------------------------------------------------------------------

         DFTD3 V3.0 Rev 1        
 Edisp (eV)   -1.23728

 E6    (eV) :    -0.3574
 E8    (eV) :    -0.8799
 % E8        : 71.11
    FORVDW:  cpu time    0.0168: real time    0.0168

  FORCE on cell =-STRESS in cart. coord.  units (eV):
  Direction    XX          YY          ZZ          XY          YZ          ZX
  --------------------------------------------------------------------------------------
  Alpha Z    42.40721    42.40721    42.40721
  Ewald    7479.18334  7479.69403 -8996.57937    -0.00042    -0.65723    -0.02015
  Hartree  7957.65219  7957.89888 -7774.39644    -0.00015    -0.24705    -0.00756
  E(xc)    -141.04383  -141.05292  -141.50192     0.00000     0.00038     0.00001
  Local  -16064.12362-16065.02211 16137.12995     0.00054     0.89003     0.02727
  n-local   141.97303   142.08062   143.48257    -0.00000    -0.02913    -0.00091
  augment    78.80360    78.79598    79.70026     0.00000     0.00938     0.00028
  Kinetic   505.88339   505.90627   509.75181     0.00001     0.03768     0.00114
  Fock        0.00000     0.00000     0.00000     0.00000     0.00000     0.00000
  vdW        -0.77731    -0.77405    -0.23608     0.00000     0.00058     0.00002
  -------------------------------------------------------------------------------------
  Total      -0.04200    -0.06609    -0.24201    -0.00001     0.00464     0.00010
  in kB      -0.29402    -0.46266    -1.69407    -0.00008     0.03248     0.00067
  external pressure =       -0.82 kB  Pullay stress =        0.00 kB


 VOLUME and BASIS-vectors are now :
 -----------------------------------------------------------------------------
  energy-cutoff  :      300.00
  volume of cell :      228.89
      direct lattice vectors                 reciprocal lattice vectors
     3.636944978 -0.036404902  0.000000000     0.276518965  0.156140038  0.000000000
    -1.786911496  3.164562560  0.000000000     0.003181054  0.317795665  0.000000000
     0.000000000  0.000000000 20.000000000     0.000000000  0.000000000  0.050000000

  length of vectors
     3.637127175  3.634213655 20.000000000     0.317557002  0.317811585  0.050000000


 FORCES acting on ions
    electron-ion (+dipol)            ewald-force                    non-local-force                 convergence-correction
 -----------------------------------------------------------------------------------------------
   -.508E-02 -.169E+00 0.993E+03   0.469E-02 0.155E+00 -.998E+03   0.623E-04 0.274E-02 0.562E+01   0.343E-03 0.119E-01 -.710E-01
   0.414E-02 0.135E+00 -.100E+04   -.389E-02 -.127E+00 0.100E+04   -.651E-04 -.237E-02 -.270E+01   -.253E-03 -.867E-02 -.191E-01
   0.155E-02 0.492E-01 -.568E+03   -.146E-02 -.457E-01 0.561E+03   -.253E-03 -.760E-02 0.658E+01   0.504E-05 -.237E-03 -.352E+00
   -.728E-03 -.185E-01 0.574E+03   0.655E-03 0.170E-01 -.567E+03   0.237E-03 0.680E-02 -.646E+01   0.103E-04 -.284E-03 -.288E+00
 -----------------------------------------------------------------------------------------------
   -.120E-03 -.385E-02 -.231E+01   0.861E-14 0.946E-14 -.114E-12   -.183E-04 -.425E-03 0.303E+01   0.106E-03 0.273E-02 -.731E+00
 
 
 POSITION                                       TOTAL-FORCE (eV/Angst)
 -----------------------------------------------------------------------------------
     -0.89327      1.58216      3.36703         0.000015      0.000781      0.009967
     -0.89327      1.58215      7.71424        -0.000054     -0.002237      0.005538
      0.91468      0.51517      6.20877        -0.000142     -0.003902      0.012230
      0.93572      2.61274      4.71463         0.000181      0.005358     -0.027735
 -----------------------------------------------------------------------------------
    total drift:                               -0.000033     -0.001543     -0.003931


--------------------------------------------------------------------------------------------------------



  FREE ENERGIE OF THE ION-ELECTRON SYSTEM (eV)
  ---------------------------------------------------
  free  energy   TOTEN  =       -17.79963690 eV

  energy  without entropy=      -17.79963690  energy(sigma->0) =      -17.79963690
 
 d Force = 0.1611095E-05[-0.426E-04, 0.458E-04]  d Energy = 0.9386247E-04-0.923E-04
 d Force =-0.1510910E+01[-0.151E+01,-0.151E+01]  d Ewald  =-0.9401206E+01 0.789E+01


--------------------------------------------------------------------------------------------------------


    POTLOK:  cpu time    0.2518: real time    0.2518


--------------------------------------------------------------------------------------------------------


 Quasi-Newton relaxation of ions (Broydens 2nd method)
  g(Force)  = 0.530E-04   g(Stress)= 0.527E-04

 retain information from N=  1 steps
 eigenvalues of (default step * inverse Hessian matrix)
  average eigenvalue of G=   3.8815
 eigenvalue spectrum of G is  3.8815


--------------------------------------------------------------------------------------------------------


  
 reached required accuracy - stopping structural energy minimisation
 writing wavefunctions
     LOOP+:  cpu time    4.5500: real time    4.5627
    4ORBIT:  cpu time    0.0000: real time    0.0000

 total amount of memory used by VASP MPI-rank0    87058. kBytes
=======================================================================

   base      :      30000. kBytes
   nonl-proj :      18974. kBytes
   fftplans  :       9621. kBytes
   grid      :      20579. kBytes
   one-center:         62. kBytes
   wavefun   :       7822. kBytes
 
  
  
 General timing and accounting informations for this job:
 ========================================================
  
                  Total CPU time used (sec):       21.158
                            User time (sec):       20.471
                          System time (sec):        0.687
                         Elapsed time (sec):       21.432
  
                   Maximum memory used (kb):      190652.
                   Average memory used (kb):           0.
  
                          Minor page faults:        72271
                          Major page faults:            0
                 Voluntary context switches:           52
