 running on    8 total cores
 distrk:  each k-point on    2 cores,    4 groups
 distr:  one band on    1 cores,    2 groups
 using from now: INCAR     
 vasp.5.4.4.16052018 (build Dec 07 2020 11:33:42) complex                       
  
 POSCAR found type information on POSCAR  Cl Br Pt
 POSCAR found :  3 types and       4 ions
 scaLAPACK will be used

 ----------------------------------------------------------------------------- 
|                                                                             |
|           W    W    AA    RRRRR   N    N  II  N    N   GGGG   !!!           |
|           W    W   A  A   R    R  NN   N  II  NN   N  G    G  !!!           |
|           W    W  A    A  R    R  N N  N  II  N N  N  G       !!!           |
|           W WW W  AAAAAA  RRRRR   N  N N  II  N  N N  G  GGG   !            |
|           WW  WW  A    A  R   R   N   NN  II  N   NN  G    G                |
|           W    W  A    A  R    R  N    N  II  N    N   GGGG   !!!           |
|                                                                             |
|      For optimal performance we recommend to set                            |
|        NCORE= 4 - approx SQRT( number of cores)                             |
|      NCORE specifies how many cores store one orbital (NPAR=cpu/NCORE).     |
|      This setting can  greatly improve the performance of VASP for DFT.     |
|      The default,   NCORE=1            might be grossly inefficient         |
|      on modern multi-core architectures or massively parallel machines.     |
|      Do your own testing !!!!                                               |
|      Unfortunately you need to use the default for GW and RPA calculations. |
|      (for HF NCORE is supported but not extensively tested yet)             |
|                                                                             |
 ----------------------------------------------------------------------------- 


 ----------------------------------------------------------------------------- 
|                                                                             |
|           W    W    AA    RRRRR   N    N  II  N    N   GGGG   !!!           |
|           W    W   A  A   R    R  NN   N  II  NN   N  G    G  !!!           |
|           W    W  A    A  R    R  N N  N  II  N N  N  G       !!!           |
|           W WW W  AAAAAA  RRRRR   N  N N  II  N  N N  G  GGG   !            |
|           WW  WW  A    A  R   R   N   NN  II  N   NN  G    G                |
|           W    W  A    A  R    R  N    N  II  N    N   GGGG   !!!           |
|                                                                             |
|      You have enabled k-point parallelism (KPAR>1).                         |
|      This developmental code was originally  written by Paul Kent at ORNL,  |
|      and carefully double checked in Vienna.                                |
|      GW as well as linear response parallelism added by Martijn Marsman     |
|      and Georg Kresse.                                                      |
|      Carefully verify results versus KPAR=1.                                |
|      Report problems to Paul Kent and Vienna.                               |
|                                                                             |
 ----------------------------------------------------------------------------- 

 LDA part: xc-table for Pade appr. of Perdew
 POSCAR, INCAR and KPOINTS ok, starting setup
 FFT: planning ...
 WAVECAR not read
 entering main loop
       N       E                     dE             d eps       ncg     rms          rms(c)
DAV:   1     0.223358593198E+03    0.22336E+03   -0.10121E+04   704   0.797E+02
DAV:   2     0.232652726633E+01   -0.22103E+03   -0.21100E+03  1062   0.204E+02
DAV:   3    -0.170663010819E+02   -0.19393E+02   -0.19103E+02   842   0.697E+01
DAV:   4    -0.174653167630E+02   -0.39902E+00   -0.39826E+00   886   0.114E+01
DAV:   5    -0.174749021920E+02   -0.95854E-02   -0.95843E-02   864   0.168E+00    0.156E+01
DAV:   6    -0.166158587272E+02    0.85904E+00   -0.23635E+00   872   0.136E+01    0.877E+00
DAV:   7    -0.166229907061E+02   -0.71320E-02   -0.55658E-01   806   0.775E+00    0.318E+00
DAV:   8    -0.166821468694E+02   -0.59156E-01   -0.44087E-01   830   0.959E+00    0.259E+00
DAV:   9    -0.165671304800E+02    0.11502E+00   -0.16407E-01   818   0.568E+00    0.421E-01
DAV:  10    -0.165663354015E+02    0.79508E-03   -0.25692E-02   794   0.101E+00    0.141E-01
DAV:  11    -0.165662680745E+02    0.67327E-04   -0.19904E-03   830   0.378E-01    0.821E-02
DAV:  12    -0.165662971474E+02   -0.29073E-04   -0.18081E-04   790   0.956E-02
   1 F= -.17798717E+02 E0= -.17798717E+02  d E =-.177987E+02
stress tensor set to zero in row and column 1
stress tensor set to zero in row and column 3
 BRION: g(F)=  0.599E-03 g(S)=  0.793E-03
 bond charge predicted
       N       E                     dE             d eps       ncg     rms          rms(c)
DAV:   1    -0.165668604719E+02   -0.59240E-03   -0.22328E-01   704   0.289E+00    0.371E-01
DAV:   2    -0.165645624589E+02    0.22980E-02   -0.92643E-03   860   0.742E-01    0.167E-01
DAV:   3    -0.165642256587E+02    0.33680E-03   -0.88561E-04   854   0.321E-01    0.116E-01
DAV:   4    -0.165641729939E+02    0.52665E-04   -0.71077E-04   800   0.372E-01    0.938E-02
DAV:   5    -0.165640933712E+02    0.79623E-04   -0.25946E-04   794   0.185E-01    0.335E-02
DAV:   6    -0.165641085419E+02   -0.15171E-04   -0.43373E-05   556   0.425E-02
   2 F= -.17799274E+02 E0= -.17799274E+02  d E =-.557150E-03
stress tensor set to zero in row and column 1
stress tensor set to zero in row and column 3
 BRION: g(F)=  0.300E-03 g(S)=  0.287E-03 retain N=  1 mean eig= 0.62
 eig:   0.624
 bond charge predicted
       N       E                     dE             d eps       ncg     rms          rms(c)
DAV:   1    -0.165656828649E+02   -0.15895E-02   -0.35511E-02   704   0.115E+00    0.137E-01
DAV:   2    -0.165653551216E+02    0.32774E-03   -0.15870E-03   872   0.299E-01    0.585E-02
DAV:   3    -0.165653051074E+02    0.50014E-04   -0.90100E-05   610   0.900E-02    0.371E-02
DAV:   4    -0.165653082323E+02   -0.31249E-05   -0.89151E-05   580   0.130E-01
   3 F= -.17799546E+02 E0= -.17799546E+02  d E =-.272532E-03
stress tensor set to zero in row and column 1
stress tensor set to zero in row and column 3
 BRION: g(F)=  0.148E-03 g(S)=  0.497E-04 retain N=  1 mean eig= 1.09
 eig:   1.090
 reached required accuracy - stopping structural energy minimisation
 writing wavefunctions
