 vasp.5.4.4.16052018 (build Dec 07 2020 11:33:42) complex                       
  
 executed on             LinuxIFC date 2020.12.13  00:45:58
 running on    8 total cores
 distrk:  each k-point on    2 cores,    4 groups
 distr:  one band on NCORES_PER_BAND=   1 cores,    2 groups


--------------------------------------------------------------------------------------------------------


 INCAR:
 POTCAR:    PAW_PBE Cl 06Sep2000                  
 POTCAR:    PAW_PBE Br 06Sep2000                  
 POTCAR:    PAW_PBE Pt 04Feb2005                  

 ----------------------------------------------------------------------------- 
|                                                                             |
|           W    W    AA    RRRRR   N    N  II  N    N   GGGG   !!!           |
|           W    W   A  A   R    R  NN   N  II  NN   N  G    G  !!!           |
|           W    W  A    A  R    R  N N  N  II  N N  N  G       !!!           |
|           W WW W  AAAAAA  RRRRR   N  N N  II  N  N N  G  GGG   !            |
|           WW  WW  A    A  R   R   N   NN  II  N   NN  G    G                |
|           W    W  A    A  R    R  N    N  II  N    N   GGGG   !!!           |
|                                                                             |
|      For optimal performance we recommend to set                            |
|        NCORE= 4 - approx SQRT( number of cores)                             |
|      NCORE specifies how many cores store one orbital (NPAR=cpu/NCORE).     |
|      This setting can  greatly improve the performance of VASP for DFT.     |
|      The default,   NCORE=1            might be grossly inefficient         |
|      on modern multi-core architectures or massively parallel machines.     |
|      Do your own testing !!!!                                               |
|      Unfortunately you need to use the default for GW and RPA calculations. |
|      (for HF NCORE is supported but not extensively tested yet)             |
|                                                                             |
 ----------------------------------------------------------------------------- 


 ----------------------------------------------------------------------------- 
|                                                                             |
|           W    W    AA    RRRRR   N    N  II  N    N   GGGG   !!!           |
|           W    W   A  A   R    R  NN   N  II  NN   N  G    G  !!!           |
|           W    W  A    A  R    R  N N  N  II  N N  N  G       !!!           |
|           W WW W  AAAAAA  RRRRR   N  N N  II  N  N N  G  GGG   !            |
|           WW  WW  A    A  R   R   N   NN  II  N   NN  G    G                |
|           W    W  A    A  R    R  N    N  II  N    N   GGGG   !!!           |
|                                                                             |
|      You have enabled k-point parallelism (KPAR>1).                         |
|      This developmental code was originally  written by Paul Kent at ORNL,  |
|      and carefully double checked in Vienna.                                |
|      GW as well as linear response parallelism added by Martijn Marsman     |
|      and Georg Kresse.                                                      |
|      Carefully verify results versus KPAR=1.                                |
|      Report problems to Paul Kent and Vienna.                               |
|                                                                             |
 ----------------------------------------------------------------------------- 

 POTCAR:    PAW_PBE Cl 06Sep2000                  
   VRHFIN =Cl: s2p5                                                             
   LEXCH  = PE                                                                  
   EATOM  =   409.7259 eV,   30.1140 Ry                                         
                                                                                
   TITEL  = PAW_PBE Cl 06Sep2000                                                
   LULTRA =        F    use ultrasoft PP ?                                      
   IUNSCR =        1    unscreen: 0-lin 1-nonlin 2-no                           
   RPACOR =    1.500    partial core radius                                     
   POMASS =   35.453; ZVAL   =    7.000    mass and valenz                      
   RCORE  =    1.900    outmost cutoff radius                                   
   RWIGS  =    2.100; RWIGS  =    1.111    wigner-seitz radius (au A)           
   ENMAX  =  262.472; ENMIN  =  196.854 eV                                      
   ICORE  =        2    local potential                                         
   LCOR   =        T    correct aug charges                                     
   LPAW   =        T    paw PP                                                  
   EAUG   =  356.192                                                            
   DEXC   =    0.000                                                            
   RMAX   =    1.945    core radius for proj-oper                               
   RAUG   =    1.300    factor for augmentation sphere                          
   RDEP   =    2.020    radius for radial grids                                 
   RDEPT  =    1.678    core radius for aug-charge                              
                                                                                
   Atomic configuration                                                         
    6 entries                                                                   
     n  l   j            E        occ.                                          
     1  0  0.50     -2751.1850   2.0000                                         
     2  0  0.50      -252.6861   2.0000                                         
     2  1  1.50      -191.6157   6.0000                                         
     3  0  0.50       -20.6916   2.0000                                         
     3  1  0.50        -8.5949   5.0000                                         
     3  2  1.50        -8.1635   0.0000                                         
   Description                                                                  
     l       E           TYP  RCUT    TYP  RCUT                                 
     0    -20.6915656     23  1.900                                             
     0    -22.0521482     23  1.900                                             
     1     -8.5948577     23  1.900                                             
     1     -5.3847331     23  1.900                                             
     2     -8.1634956     23  1.900                                             
  local pseudopotential read in
  partial core-charges read in
  partial kinetic energy density read in
  atomic valenz-charges read in
  non local Contribution for L=           0  read in
    real space projection operators read in
  non local Contribution for L=           0  read in
    real space projection operators read in
  non local Contribution for L=           1  read in
    real space projection operators read in
  non local Contribution for L=           1  read in
    real space projection operators read in
    PAW grid and wavefunctions read in
 
   number of l-projection  operators is LMAX  =           4
   number of lm-projection operators is LMMAX =           8
 
 POTCAR:    PAW_PBE Br 06Sep2000                  
   VRHFIN =Br: s2p5                                                             
   LEXCH  = PE                                                                  
   EATOM  =   368.4488 eV,   27.0802 Ry                                         
                                                                                
   TITEL  = PAW_PBE Br 06Sep2000                                                
   LULTRA =        F    use ultrasoft PP ?                                      
   IUNSCR =        1    unscreen: 0-lin 1-nonlin 2-no                           
   RPACOR =    1.900    partial core radius                                     
   POMASS =   79.904; ZVAL   =    7.000    mass and valenz                      
   RCORE  =    2.100    outmost cutoff radius                                   
   RWIGS  =    2.200; RWIGS  =    1.164    wigner-seitz radius (au A)           
   ENMAX  =  216.285; ENMIN  =  162.214 eV                                      
   ICORE  =        3    local potential                                         
   LCOR   =        T    correct aug charges                                     
   LPAW   =        T    paw PP                                                  
   EAUG   =  503.852                                                            
   DEXC   =    0.000                                                            
   RMAX   =    2.139    core radius for proj-oper                               
   RAUG   =    1.300    factor for augmentation sphere                          
   RDEP   =    2.186    radius for radial grids                                 
   RDEPT  =    1.890    core radius for aug-charge                              
                                                                                
   Atomic configuration                                                         
   10 entries                                                                   
     n  l   j            E        occ.                                          
     1  0  0.50    -13316.2796   2.0000                                         
     2  0  0.50     -1732.8239   2.0000                                         
     2  1  1.50     -1528.2193   6.0000                                         
     3  0  0.50      -238.0460   2.0000                                         
     3  1  1.50      -173.4609   6.0000                                         
     3  2  2.50       -66.7132  10.0000                                         
     4  0  0.50       -20.1334   2.0000                                         
     4  1  0.50        -7.8591   5.0000                                         
     4  2  2.50        -8.1635   0.0000                                         
     4  3  2.50        -8.1635   0.0000                                         
   Description                                                                  
     l       E           TYP  RCUT    TYP  RCUT                                 
     0    -20.1333652     23  2.100                                             
     0    -21.4939478     23  2.100                                             
     1     -7.8591052     23  2.100                                             
     1     -3.1608434     23  2.100                                             
     2     -8.1634956     23  2.100                                             
     3     -1.3605826      7  2.100                                             
  local pseudopotential read in
  partial core-charges read in
  partial kinetic energy density read in
  atomic valenz-charges read in
  non local Contribution for L=           0  read in
    real space projection operators read in
  non local Contribution for L=           0  read in
    real space projection operators read in
  non local Contribution for L=           1  read in
    real space projection operators read in
  non local Contribution for L=           1  read in
    real space projection operators read in
  non local Contribution for L=           2  read in
    real space projection operators read in
    PAW grid and wavefunctions read in
 
   number of l-projection  operators is LMAX  =           5
   number of lm-projection operators is LMMAX =          13
 
 POTCAR:    PAW_PBE Pt 04Feb2005                  
   VRHFIN =Pt: s1d9                                                             
   LEXCH  = PE                                                                  
   EATOM  =   729.1176 eV,   53.5886 Ry                                         
                                                                                
   TITEL  = PAW_PBE Pt 04Feb2005                                                
   LULTRA =        F    use ultrasoft PP ?                                      
   IUNSCR =        1    unscreen: 0-lin 1-nonlin 2-no                           
   RPACOR =    2.330    partial core radius                                     
   POMASS =  195.080; ZVAL   =   10.000    mass and valenz                      
   RCORE  =    2.600    outmost cutoff radius                                   
   RWIGS  =    2.750; RWIGS  =    1.455    wigner-seitz radius (au A)           
   ENMAX  =  230.283; ENMIN  =  172.712 eV                                      
   ICORE  =        3    local potential                                         
   LCOR   =        T    correct aug charges                                     
   LPAW   =        T    paw PP                                                  
   EAUG   =  358.966                                                            
   DEXC   =    0.000                                                            
   RMAX   =    2.658    core radius for proj-oper                               
   RAUG   =    1.300    factor for augmentation sphere                          
   RDEP   =    2.761    radius for radial grids                                 
   RDEPT  =    2.203    core radius for aug-charge                              
                                                                                
   Atomic configuration                                                         
   16 entries                                                                   
     n  l   j            E        occ.                                          
     1  0  0.50    -78401.1885   2.0000                                         
     2  0  0.50    -13770.7750   2.0000                                         
     2  1  1.50    -11931.0468   6.0000                                         
     3  0  0.50     -3234.7234   2.0000                                         
     3  1  1.50     -2699.2216   6.0000                                         
     3  2  2.50     -2119.5714  10.0000                                         
     4  0  0.50      -695.1528   2.0000                                         
     4  1  1.50      -519.6034   6.0000                                         
     4  2  2.50      -306.6786  10.0000                                         
     4  3  3.50       -70.1041  14.0000                                         
     5  0  0.50      -101.7747   2.0000                                         
     5  1  1.50       -55.9873   6.0000                                         
     5  2  2.50        -6.1423   9.0000                                         
     6  0  0.50        -5.6573   1.0000                                         
     6  1  1.50        -6.8029   0.0000                                         
     5  3  2.50        -1.3606   0.0000                                         
   Description                                                                  
     l       E           TYP  RCUT    TYP  RCUT                                 
     2     -6.1423404     23  2.500                                             
     2     -7.5029230     23  2.500                                             
     0     -5.6573207     23  2.500                                             
     0      0.7416693     23  2.500                                             
     1     -2.7211652     23  2.600                                             
     1     20.4087390     23  2.600                                             
     3     -1.3605826     23  2.500                                             
  local pseudopotential read in
  partial core-charges read in
  partial kinetic energy density read in
  atomic valenz-charges read in
  non local Contribution for L=           2  read in
    real space projection operators read in
  non local Contribution for L=           2  read in
    real space projection operators read in
  non local Contribution for L=           0  read in
    real space projection operators read in
  non local Contribution for L=           0  read in
    real space projection operators read in
  non local Contribution for L=           1  read in
    real space projection operators read in
  non local Contribution for L=           1  read in
    real space projection operators read in
    PAW grid and wavefunctions read in
 
   number of l-projection  operators is LMAX  =           6
   number of lm-projection operators is LMMAX =          18
 
  PAW_PBE Cl 06Sep2000                  :
 energy of atom  1       EATOM= -409.7259
 kinetic energy error for atom=    0.0150 (will be added to EATOM!!)
  PAW_PBE Br 06Sep2000                  :
 energy of atom  2       EATOM= -368.4488
 kinetic energy error for atom=    0.0072 (will be added to EATOM!!)
  PAW_PBE Pt 04Feb2005                  :
 energy of atom  3       EATOM= -729.1176
 kinetic energy error for atom=    0.0416 (will be added to EATOM!!)
 
 
 POSCAR: ClBrPt2                                 
  positions in direct lattice
  velocities in cartesian coordinates
 exchange correlation table for  LEXCH =        8
   RHO(1)=    0.500       N(1)  =     2000
   RHO(2)=  100.500       N(2)  =     4000
 


--------------------------------------------------------------------------------------------------------


 ion  position               nearest neighbor table
   1  0.000  0.500  0.168-   4 2.49   4 2.50   4 2.50
   2  0.000  0.500  0.386-   3 2.58   3 2.59   3 2.59
   3  0.333  0.167  0.310-   4 2.58   4 2.58   2 2.58   4 2.59   2 2.59   2 2.59
   4  0.667  0.833  0.236-   1 2.49   1 2.50   1 2.50   3 2.58   3 2.58   3 2.59
 

IMPORTANT INFORMATION: All symmetrisations will be switched off!
NOSYMM: (Re-)initialisation of all symmetry stuff for point group C_1.

 
 
 KPOINTS: Automatic mesh                          

Automatic generation of k-mesh.
Space group operators:
 irot       det(A)        alpha          n_x          n_y          n_z        tau_x        tau_y        tau_z
    1     1.000000     0.000000     1.000000     0.000000     0.000000     0.000000     0.000000     0.000000
 
 Subroutine IBZKPT returns following result:
 ===========================================
 
 Found     16 irreducible k-points:
 
 Following reciprocal coordinates:
            Coordinates               Weight
  0.000000  0.000000  0.000000      1.000000
  0.250000  0.000000  0.000000      1.000000
  0.500000  0.000000  0.000000      1.000000
 -0.250000 -0.000000  0.000000      1.000000
  0.000000  0.250000  0.000000      1.000000
  0.250000  0.250000  0.000000      1.000000
  0.500000  0.250000  0.000000      1.000000
 -0.250000  0.250000  0.000000      1.000000
  0.000000  0.500000  0.000000      1.000000
  0.250000  0.500000  0.000000      1.000000
  0.500000  0.500000  0.000000      1.000000
 -0.250000  0.500000  0.000000      1.000000
 -0.000000 -0.250000  0.000000      1.000000
  0.250000 -0.250000  0.000000      1.000000
  0.500000 -0.250000  0.000000      1.000000
 -0.250000 -0.250000  0.000000      1.000000
 
 Following cartesian coordinates:
            Coordinates               Weight
  0.000000  0.000000  0.000000      1.000000
  0.068784  0.038799  0.000000      1.000000
  0.137568  0.077597  0.000000      1.000000
 -0.068784 -0.038799  0.000000      1.000000
  0.000791  0.079363  0.000000      1.000000
  0.069575  0.118162  0.000000      1.000000
  0.138359  0.156960  0.000000      1.000000
 -0.067993  0.040564  0.000000      1.000000
  0.001583  0.158726  0.000000      1.000000
  0.070366  0.197524  0.000000      1.000000
  0.139150  0.236323  0.000000      1.000000
 -0.067201  0.119927  0.000000      1.000000
 -0.000791 -0.079363  0.000000      1.000000
  0.067993 -0.040564  0.000000      1.000000
  0.136776 -0.001765  0.000000      1.000000
 -0.069575 -0.118162  0.000000      1.000000
 


--------------------------------------------------------------------------------------------------------




 Dimension of arrays:
   k-points           NKPTS =     16   k-points in BZ     NKDIM =     16   number of bands    NBANDS=     22
   number of dos      NEDOS =    301   number of ions     NIONS =      4
   non local maximal  LDIM  =      6   non local SUM 2l+1 LMDIM =     18
   total plane-waves  NPLWV =  69120
   max r-space proj   IRMAX =      1   max aug-charges    IRDMAX=  18377
   dimension x,y,z NGX =    24 NGY =   24 NGZ =  120
   dimension x,y,z NGXF=    48 NGYF=   48 NGZF=  240
   support grid    NGXF=    48 NGYF=   48 NGZF=  240
   ions per type =               1   1   2
   NGX,Y,Z   is equivalent  to a cutoff of  10.92, 10.97,  9.97 a.u.
   NGXF,Y,Z  is equivalent  to a cutoff of  21.83, 21.94, 19.95 a.u.

 SYSTEM =  unknown system                          
 POSCAR =  ClBrPt2                                 

 Startparameter for this run:
   NWRITE =      2    write-flag & timer
   PREC   = accura    normal or accurate (medium, high low for compatibility)
   ISTART =      0    job   : 0-new  1-cont  2-samecut
   ICHARG =      2    charge: 1-file 2-atom 10-const
   ISPIN  =      1    spin polarized calculation?
   LNONCOLLINEAR =      F non collinear calculations
   LSORBIT =      F    spin-orbit coupling
   INIWAV =      1    electr: 0-lowe 1-rand  2-diag
   LASPH  =      F    aspherical Exc in radial PAW
   METAGGA=      F    non-selfconsistent MetaGGA calc.

 Electronic Relaxation 1
   ENCUT  =  300.0 eV  22.05 Ry    4.70 a.u.   5.16  5.14 28.25*2*pi/ulx,y,z
   ENINI  =  300.0     initial cutoff
   ENAUG  =  503.9 eV  augmentation charge cutoff
   NELM   =     60;   NELMIN=  2; NELMDL= -5     # of ELM steps 
   EDIFF  = 0.5E-04   stopping-criterion for ELM
   LREAL  =      F    real-space projection
   NLSPLINE    = F    spline interpolate recip. space projectors
   LCOMPAT=      F    compatible to vasp.4.4
   GGA_COMPAT  = T    GGA compatible to vasp.4.4-vasp.4.6
   LMAXPAW     = -100 max onsite density
   LMAXMIX     =    2 max onsite mixed and CHGCAR
   VOSKOWN=      0    Vosko Wilk Nusair interpolation
   ROPT   =    0.00000   0.00000   0.00000
 Ionic relaxation
   EDIFFG = 0.5E-03   stopping-criterion for IOM
   NSW    =    100    number of steps for IOM
   NBLOCK =      1;   KBLOCK =    100    inner block; outer block 
   IBRION =      1    ionic relax: 0-MD 1-quasi-New 2-CG
   NFREE  =      0    steps in history (QN), initial steepest desc. (CG)
   ISIF   =      3    stress and relaxation
   IWAVPR =     11    prediction:  0-non 1-charg 2-wave 3-comb
   ISYM   =     -1    0-nonsym 1-usesym 2-fastsym
   LCORR  =      T    Harris-Foulkes like correction to forces

   POTIM  = 0.5000    time-step for ionic-motion
   TEIN   =    0.0    initial temperature
   TEBEG  =    0.0;   TEEND  =   0.0 temperature during run
   SMASS  =  -3.00    Nose mass-parameter (am)
   estimated Nose-frequenzy (Omega)   =  0.10E-29 period in steps =****** mass=  -0.305E-27a.u.
   SCALEE = 1.0000    scale energy and forces
   NPACO  =    256;   APACO  = 16.0  distance and # of slots for P.C.
   PSTRESS=    0.0 pullay stress

  Mass of Ions in am
   POMASS =  35.45 79.90195.08
  Ionic Valenz
   ZVAL   =   7.00  7.00 10.00
  Atomic Wigner-Seitz radii
   RWIGS  =  -1.00 -1.00 -1.00
  virtual crystal weights 
   VCA    =   1.00  1.00  1.00
   NELECT =      34.0000    total number of electrons
   NUPDOWN=      -1.0000    fix difference up-down

 DOS related values:
   EMIN   =  10.00;   EMAX   =-10.00  energy-range for DOS
   EFERMI =   0.00
   ISMEAR =     0;   SIGMA  =   0.10  broadening in eV -4-tet -1-fermi 0-gaus

 Electronic relaxation 2 (details)
   IALGO  =     38    algorithm
   LDIAG  =      T    sub-space diagonalisation (order eigenvalues)
   LSUBROT=      F    optimize rotation matrix (better conditioning)
   TURBO    =      0    0=normal 1=particle mesh
   IRESTART =      0    0=no restart 2=restart with 2 vectors
   NREBOOT  =      0    no. of reboots
   NMIN     =      0    reboot dimension
   EREF     =   0.00    reference energy to select bands
   IMIX   =      4    mixing-type and parameters
     AMIX     =   0.40;   BMIX     =  1.00
     AMIX_MAG =   1.60;   BMIX_MAG =  1.00
     AMIN     =   0.10
     WC   =   100.;   INIMIX=   1;  MIXPRE=   1;  MAXMIX= -45

 Intra band minimization:
   WEIMIN = 0.0010     energy-eigenvalue tresh-hold
   EBREAK =  0.57E-06  absolut break condition
   DEPER  =   0.30     relativ break condition  

   TIME   =   0.40     timestep for ELM

  volume/ion in A,a.u.               =      57.57       388.50
  Fermi-wavevector in a.u.,A,eV,Ry     =   0.865265  1.635114 10.186465  0.748684
  Thomas-Fermi vector in A             =   1.983483
 
 Write flags
   LWAVE        =      T    write WAVECAR
   LDOWNSAMPLE  =      F    k-point downsampling of WAVECAR
   LCHARG       =      T    write CHGCAR
   LVTOT        =      F    write LOCPOT, total local potential
   LVHAR        =      F    write LOCPOT, Hartree potential only
   LELF         =      F    write electronic localiz. function (ELF)
   LORBIT       =      0    0 simple, 1 ext, 2 COOP (PROOUT), +10 PAW based schemes


 Dipole corrections
   LMONO  =      F    monopole corrections only (constant potential shift)
   LDIPOL =      T    correct potential (dipole corrections)
   IDIPOL =      3    1-x, 2-y, 3-z, 4-all directions 
   EPSILON=  1.0000000 bulk dielectric constant

 Exchange correlation treatment:
   GGA     =    --    GGA type
   LEXCH   =     8    internal setting for exchange type
   VOSKOWN=      0    Vosko Wilk Nusair interpolation
   LHFCALC =     F    Hartree Fock is set to
   LHFONE  =     F    Hartree Fock one center treatment
   AEXX    =    0.0000 exact exchange contribution

 Linear response parameters
   LEPSILON=     F    determine dielectric tensor
   LRPA    =     F    only Hartree local field effects (RPA)
   LNABLA  =     F    use nabla operator in PAW spheres
   LVEL    =     F    velocity operator in full k-point grid
   LINTERFAST=   F  fast interpolation
   KINTER  =     0    interpolate to denser k-point grid
   CSHIFT  =0.1000    complex shift for real part using Kramers Kronig
   OMEGAMAX=  -1.0    maximum frequency
   DEG_THRESHOLD= 0.2000000E-02 threshold for treating states as degnerate
   RTIME   =   -0.100 relaxation time in fs
  (WPLASMAI=    0.000 imaginary part of plasma frequency in eV, 0.658/RTIME)
   DFIELD  = 0.0000000 0.0000000 0.0000000 field for delta impulse in time
 
 Orbital magnetization related:
   ORBITALMAG=     F  switch on orbital magnetization
   LCHIMAG   =     F  perturbation theory with respect to B field
   DQ        =  0.001000  dq finite difference perturbation B field
   LLRAUG    =     F  two centre corrections for induced B field



--------------------------------------------------------------------------------------------------------


 quasi-Newton-method for relaxation of ions
 charge density and potential will be updated during run
 non-spin polarized calculation
 Variant of blocked Davidson
 Davidson routine will perform the subspace rotation
 perform sub-space diagonalisation
    after iterative eigenvector-optimisation
 modified Broyden-mixing scheme, WC =      100.0
 initial mixing is a Kerker type mixing with AMIX =  0.4000 and BMIX =      1.0000
 Hartree-type preconditioning will be used
 using additional bands            5
 reciprocal scheme for non local part
 use partial core corrections
 calculate Harris-corrections to forces 
   (improved forces if not selfconsistent)
 use gradient corrections 
 use of overlap-Matrix (Vanderbilt PP)
 Gauss-broadening in eV      SIGMA  =   0.10


--------------------------------------------------------------------------------------------------------


  energy-cutoff  :      300.00
  volume of cell :      230.28
      direct lattice vectors                 reciprocal lattice vectors
     3.655129703 -0.036443352  0.000000000     0.275135468  0.155194915  0.000000000
    -1.786911496  3.167904907  0.000000000     0.003165139  0.317451392  0.000000000
     0.000000000  0.000000000 20.000000000     0.000000000  0.000000000  0.050000000

  length of vectors
     3.655311377  3.637124440 20.000000000     0.315887618  0.317467171  0.050000000


 
 k-points in units of 2pi/SCALE and weight: Automatic mesh                          
   0.00000000  0.00000000  0.00000000       0.062
   0.06878387  0.03879873  0.00000000       0.062
   0.13756773  0.07759746  0.00000000       0.062
  -0.06878387 -0.03879873  0.00000000       0.062
   0.00079128  0.07936285  0.00000000       0.062
   0.06957515  0.11816158  0.00000000       0.062
   0.13835902  0.15696031  0.00000000       0.062
  -0.06799258  0.04056412  0.00000000       0.062
   0.00158257  0.15872570  0.00000000       0.062
   0.07036644  0.19752442  0.00000000       0.062
   0.13915030  0.23632315  0.00000000       0.062
  -0.06720130  0.11992697  0.00000000       0.062
  -0.00079128 -0.07936285  0.00000000       0.062
   0.06799258 -0.04056412  0.00000000       0.062
   0.13677645 -0.00176539  0.00000000       0.062
  -0.06957515 -0.11816158  0.00000000       0.062
 
 k-points in reciprocal lattice and weights: Automatic mesh                          
   0.00000000  0.00000000  0.00000000       0.062
   0.25000000  0.00000000  0.00000000       0.062
   0.50000000  0.00000000  0.00000000       0.062
  -0.25000000 -0.00000000  0.00000000       0.062
   0.00000000  0.25000000  0.00000000       0.062
   0.25000000  0.25000000  0.00000000       0.062
   0.50000000  0.25000000  0.00000000       0.062
  -0.25000000  0.25000000  0.00000000       0.062
   0.00000000  0.50000000  0.00000000       0.062
   0.25000000  0.50000000  0.00000000       0.062
   0.50000000  0.50000000  0.00000000       0.062
  -0.25000000  0.50000000  0.00000000       0.062
  -0.00000000 -0.25000000  0.00000000       0.062
   0.25000000 -0.25000000  0.00000000       0.062
   0.50000000 -0.25000000  0.00000000       0.062
  -0.25000000 -0.25000000  0.00000000       0.062
 
 position of ions in fractional coordinates (direct lattice) 
   0.00003284  0.49996180  0.16834626
   0.00003221  0.49995994  0.38572384
   0.33336542  0.16662742  0.31048675
   0.66669892  0.83329448  0.23567645
 
 position of ions in cartesian coordinates  (Angst):
  -0.89326745  1.58383024  3.36692514
  -0.89326643  1.58382437  7.71447671
   0.92074540  0.51571087  6.20973506
   0.94784755  2.61550093  4.71352901
 


--------------------------------------------------------------------------------------------------------


 k-point  1 :   0.0000 0.0000 0.0000  plane waves:    2697
 k-point  2 :   0.2500 0.0000 0.0000  plane waves:    2709
 k-point  3 :   0.5000 0.0000 0.0000  plane waves:    2714
 k-point  4 :  -0.2500-0.0000 0.0000  plane waves:    2709
 k-point  5 :   0.0000 0.2500 0.0000  plane waves:    2717
 k-point  6 :   0.2500 0.2500 0.0000  plane waves:    2727
 k-point  7 :   0.5000 0.2500 0.0000  plane waves:    2725
 k-point  8 :  -0.2500 0.2500 0.0000  plane waves:    2709
 k-point  9 :   0.0000 0.5000 0.0000  plane waves:    2742
 k-point 10 :   0.2500 0.5000 0.0000  plane waves:    2723
 k-point 11 :   0.5000 0.5000 0.0000  plane waves:    2726
 k-point 12 :  -0.2500 0.5000 0.0000  plane waves:    2723
 k-point 13 :  -0.0000-0.2500 0.0000  plane waves:    2717
 k-point 14 :   0.2500-0.2500 0.0000  plane waves:    2709
 k-point 15 :   0.5000-0.2500 0.0000  plane waves:    2725
 k-point 16 :  -0.2500-0.2500 0.0000  plane waves:    2727

 maximum and minimum number of plane-waves per node :      2742     2697

 maximum number of plane-waves:      2742
 maximum index in each direction: 
   IXMAX=    5   IYMAX=    5   IZMAX=   28
   IXMIN=   -5   IYMIN=   -5   IZMIN=  -28


 serial   3D FFT for wavefunctions
 parallel 3D FFT for charge:
    minimum data exchange during FFTs selected (reduces bandwidth)


 total amount of memory used by VASP MPI-rank0    87274. kBytes
=======================================================================

   base      :      30000. kBytes
   nonl-proj :      19128. kBytes
   fftplans  :       9621. kBytes
   grid      :      20579. kBytes
   one-center:         62. kBytes
   wavefun   :       7884. kBytes
 
     INWAV:  cpu time    0.0000: real time    0.0000
 Broyden mixing: mesh for mixing (old mesh)
   NGX = 11   NGY = 11   NGZ = 57
  (NGX  = 48   NGY  = 48   NGZ  =240)
  gives a total of   6897 points

 initial charge density was supplied:
 charge density of overlapping atoms calculated
 number of electron      34.0000000 magnetization 
 keeping initial charge density in first step


--------------------------------------------------------------------------------------------------------


 Maximum index for augmentation-charges         8801 (set IRDMAX)


--------------------------------------------------------------------------------------------------------


 First call to EWALD:  gamma=   0.289
 Maximum number of real-space cells 5x 5x 1
 Maximum number of reciprocal cells 2x 2x 8

    FEWALD:  cpu time    0.0013: real time    0.0013


--------------------------------------- Iteration      1(   1)  ---------------------------------------


    POTLOK:  cpu time    0.2428: real time    0.2429
    SETDIJ:  cpu time    0.0092: real time    0.0092
     EDDAV:  cpu time    0.7138: real time    0.7138
       DOS:  cpu time    0.0004: real time    0.0004
    --------------------------------------------
      LOOP:  cpu time    0.9662: real time    0.9663

 eigenvalue-minimisations  :   704
 total energy-change (2. order) : 0.2233586E+03  (-0.1012063E+04)
 number of electron      34.0000000 magnetization 
 augmentation part       34.0000000 magnetization 

 DIPCOR: dipole corrections for dipol
 direction  3 min pos   183,
 dipolmoment           0.000000      0.000000     -0.000023 electrons x Angstroem
 Tr[quadrupol]       -79.627022

 energy correction for charged system         0.000000 eV
 dipol+quadrupol energy correction           -0.000000 eV
 added-field ion interaction          0.000199 eV  (added to PSCEN)


 Free energy of the ion-electron system (eV)
  ---------------------------------------------------
  alpha Z        PSCENC =        42.15071262
  Ewald energy   TEWEN  =      5915.53598193
  -Hartree energ DENC   =     -8104.38924947
  -exchange      EXHF   =         0.00000000
  -V(xc)+E(xc)   XCENC  =        37.10323459
  PAW double counting   =      2012.60260865    -1949.97488812
  entropy T*S    EENTRO =        -0.01389758
  eigenvalues    EBANDS =        34.03951342
  atomic energy  EATOM  =      2236.30457717
  Solvation  Ediel_sol  =         0.00000000
  ---------------------------------------------------
  free energy    TOTEN  =       223.35859320 eV

  energy without entropy =      223.37249078  energy(sigma->0) =      223.36554199


--------------------------------------------------------------------------------------------------------




--------------------------------------- Iteration      1(   2)  ---------------------------------------


     EDDAV:  cpu time    0.9664: real time    0.9665
       DOS:  cpu time    0.0002: real time    0.0002
    --------------------------------------------
      LOOP:  cpu time    0.9666: real time    0.9667

 eigenvalue-minimisations  :  1062
 total energy-change (2. order) :-0.2210321E+03  (-0.2110039E+03)
 number of electron      34.0000000 magnetization 
 augmentation part       34.0000000 magnetization 

 DIPCOR: dipole corrections for dipol
 direction  3 min pos   183,
 dipolmoment           0.000000      0.000000     -0.000023 electrons x Angstroem
 Tr[quadrupol]       -79.627022

 energy correction for charged system         0.000000 eV
 dipol+quadrupol energy correction           -0.000000 eV
 added-field ion interaction          0.000199 eV  (added to PSCEN)


 Free energy of the ion-electron system (eV)
  ---------------------------------------------------
  alpha Z        PSCENC =        42.15071262
  Ewald energy   TEWEN  =      5915.53598193
  -Hartree energ DENC   =     -8104.38924947
  -exchange      EXHF   =         0.00000000
  -V(xc)+E(xc)   XCENC  =        37.10323459
  PAW double counting   =      2012.60260865    -1949.97488812
  entropy T*S    EENTRO =        -0.00000001
  eigenvalues    EBANDS =      -187.00645009
  atomic energy  EATOM  =      2236.30457717
  Solvation  Ediel_sol  =         0.00000000
  ---------------------------------------------------
  free energy    TOTEN  =         2.32652727 eV

  energy without entropy =        2.32652728  energy(sigma->0) =        2.32652727


--------------------------------------------------------------------------------------------------------




--------------------------------------- Iteration      1(   3)  ---------------------------------------


     EDDAV:  cpu time    0.8101: real time    0.8102
       DOS:  cpu time    0.0002: real time    0.0002
    --------------------------------------------
      LOOP:  cpu time    0.8104: real time    0.8104

 eigenvalue-minimisations  :   842
 total energy-change (2. order) :-0.1939283E+02  (-0.1910313E+02)
 number of electron      34.0000000 magnetization 
 augmentation part       34.0000000 magnetization 

 DIPCOR: dipole corrections for dipol
 direction  3 min pos   183,
 dipolmoment           0.000000      0.000000     -0.000023 electrons x Angstroem
 Tr[quadrupol]       -79.627022

 energy correction for charged system         0.000000 eV
 dipol+quadrupol energy correction           -0.000000 eV
 added-field ion interaction          0.000199 eV  (added to PSCEN)


 Free energy of the ion-electron system (eV)
  ---------------------------------------------------
  alpha Z        PSCENC =        42.15071262
  Ewald energy   TEWEN  =      5915.53598193
  -Hartree energ DENC   =     -8104.38924947
  -exchange      EXHF   =         0.00000000
  -V(xc)+E(xc)   XCENC  =        37.10323459
  PAW double counting   =      2012.60260865    -1949.97488812
  entropy T*S    EENTRO =        -0.00000000
  eigenvalues    EBANDS =      -206.39927845
  atomic energy  EATOM  =      2236.30457717
  Solvation  Ediel_sol  =         0.00000000
  ---------------------------------------------------
  free energy    TOTEN  =       -17.06630108 eV

  energy without entropy =      -17.06630108  energy(sigma->0) =      -17.06630108


--------------------------------------------------------------------------------------------------------




--------------------------------------- Iteration      1(   4)  ---------------------------------------


     EDDAV:  cpu time    0.8490: real time    0.8491
       DOS:  cpu time    0.0002: real time    0.0002
    --------------------------------------------
      LOOP:  cpu time    0.8492: real time    0.8493

 eigenvalue-minimisations  :   886
 total energy-change (2. order) :-0.3990157E+00  (-0.3982623E+00)
 number of electron      34.0000000 magnetization 
 augmentation part       34.0000000 magnetization 

 DIPCOR: dipole corrections for dipol
 direction  3 min pos   183,
 dipolmoment           0.000000      0.000000     -0.000023 electrons x Angstroem
 Tr[quadrupol]       -79.627022

 energy correction for charged system         0.000000 eV
 dipol+quadrupol energy correction           -0.000000 eV
 added-field ion interaction          0.000199 eV  (added to PSCEN)


 Free energy of the ion-electron system (eV)
  ---------------------------------------------------
  alpha Z        PSCENC =        42.15071262
  Ewald energy   TEWEN  =      5915.53598193
  -Hartree energ DENC   =     -8104.38924947
  -exchange      EXHF   =         0.00000000
  -V(xc)+E(xc)   XCENC  =        37.10323459
  PAW double counting   =      2012.60260865    -1949.97488812
  entropy T*S    EENTRO =        -0.00000000
  eigenvalues    EBANDS =      -206.79829413
  atomic energy  EATOM  =      2236.30457717
  Solvation  Ediel_sol  =         0.00000000
  ---------------------------------------------------
  free energy    TOTEN  =       -17.46531676 eV

  energy without entropy =      -17.46531676  energy(sigma->0) =      -17.46531676


--------------------------------------------------------------------------------------------------------




--------------------------------------- Iteration      1(   5)  ---------------------------------------


     EDDAV:  cpu time    0.8194: real time    0.8195
       DOS:  cpu time    0.0002: real time    0.0002
    CHARGE:  cpu time    0.0873: real time    0.0873
    MIXING:  cpu time    0.0077: real time    0.0077
    --------------------------------------------
      LOOP:  cpu time    0.9147: real time    0.9147

 eigenvalue-minimisations  :   864
 total energy-change (2. order) :-0.9585429E-02  (-0.9584258E-02)
 number of electron      34.0000006 magnetization 
 augmentation part        3.4280834 magnetization 

 DIPCOR: dipole corrections for dipol
 direction  3 min pos   183,
 dipolmoment           0.000000      0.000000     -0.000023 electrons x Angstroem
 Tr[quadrupol]       -79.627022

 energy correction for charged system         0.000000 eV
 dipol+quadrupol energy correction           -0.000000 eV
 added-field ion interaction          0.000199 eV  (added to PSCEN)


 Broyden mixing:
  rms(total) = 0.15569E+01    rms(broyden)= 0.15566E+01
  rms(prec ) = 0.15813E+01
  weight for this iteration     100.00

 Free energy of the ion-electron system (eV)
  ---------------------------------------------------
  alpha Z        PSCENC =        42.15071262
  Ewald energy   TEWEN  =      5915.53598193
  -Hartree energ DENC   =     -8104.38924947
  -exchange      EXHF   =         0.00000000
  -V(xc)+E(xc)   XCENC  =        37.10323459
  PAW double counting   =      2012.60260865    -1949.97488812
  entropy T*S    EENTRO =        -0.00000000
  eigenvalues    EBANDS =      -206.80787956
  atomic energy  EATOM  =      2236.30457717
  Solvation  Ediel_sol  =         0.00000000
  ---------------------------------------------------
  free energy    TOTEN  =       -17.47490219 eV

  energy without entropy =      -17.47490219  energy(sigma->0) =      -17.47490219


--------------------------------------------------------------------------------------------------------




--------------------------------------- Iteration      1(   6)  ---------------------------------------


    POTLOK:  cpu time    0.2433: real time    0.2433
    SETDIJ:  cpu time    0.0066: real time    0.0066
     EDDAV:  cpu time    0.8313: real time    0.8313
       DOS:  cpu time    0.0002: real time    0.0002
    CHARGE:  cpu time    0.0868: real time    0.0868
    MIXING:  cpu time    0.0077: real time    0.0077
    --------------------------------------------
      LOOP:  cpu time    1.1759: real time    1.1760

 eigenvalue-minimisations  :   872
 total energy-change (2. order) : 0.8590435E+00  (-0.2363461E+00)
 number of electron      34.0000006 magnetization 
 augmentation part        3.8554821 magnetization 

 DIPCOR: dipole corrections for dipol
 direction  3 min pos   185,
 dipolmoment           0.000000      0.000000     -0.034647 electrons x Angstroem
 Tr[quadrupol]       -79.568692

 energy correction for charged system         0.000000 eV
 dipol+quadrupol energy correction           -0.000472 eV
 added-field ion interaction          0.148899 eV  (added to PSCEN)


 Broyden mixing:
  rms(total) = 0.87743E+00    rms(broyden)= 0.87741E+00
  rms(prec ) = 0.88217E+00
  weight for this iteration     100.00

 eigenvalues of (default mixing * dielectric matrix)
  average eigenvalue GAMMA=   1.8440
  1.8440

 Free energy of the ion-electron system (eV)
  ---------------------------------------------------
  alpha Z        PSCENC =        42.29894117
  Ewald energy   TEWEN  =      5915.53598193
  -Hartree energ DENC   =     -8088.79937617
  -exchange      EXHF   =         0.00000000
  -V(xc)+E(xc)   XCENC  =        36.80602792
  PAW double counting   =      2275.79432016    -2216.22958340
  entropy T*S    EENTRO =        -0.00000000
  eigenvalues    EBANDS =      -218.32674750
  atomic energy  EATOM  =      2236.30457717
  Solvation  Ediel_sol  =         0.00000000
  ---------------------------------------------------
  free energy    TOTEN  =       -16.61585873 eV

  energy without entropy =      -16.61585873  energy(sigma->0) =      -16.61585873


--------------------------------------------------------------------------------------------------------




--------------------------------------- Iteration      1(   7)  ---------------------------------------


    POTLOK:  cpu time    0.2426: real time    0.2426
    SETDIJ:  cpu time    0.0068: real time    0.0068
     EDDAV:  cpu time    0.7861: real time    0.7862
       DOS:  cpu time    0.0002: real time    0.0002
    CHARGE:  cpu time    0.0867: real time    0.0867
    MIXING:  cpu time    0.0079: real time    0.0079
    --------------------------------------------
      LOOP:  cpu time    1.1304: real time    1.1304

 eigenvalue-minimisations  :   806
 total energy-change (2. order) :-0.7131979E-02  (-0.5565803E-01)
 number of electron      34.0000006 magnetization 
 augmentation part        3.8201038 magnetization 

 DIPCOR: dipole corrections for dipol
 direction  3 min pos   179,
 dipolmoment           0.000000      0.000000     -0.005283 electrons x Angstroem
 Tr[quadrupol]       -79.812480

 energy correction for charged system         0.000000 eV
 dipol+quadrupol energy correction           -0.000011 eV
 added-field ion interaction          0.093270 eV  (added to PSCEN)


 Broyden mixing:
  rms(total) = 0.31812E+00    rms(broyden)= 0.31811E+00
  rms(prec ) = 0.33985E+00
  weight for this iteration     100.00

 eigenvalues of (default mixing * dielectric matrix)
  average eigenvalue GAMMA=   1.5612
  0.8256  2.2967

 Free energy of the ion-electron system (eV)
  ---------------------------------------------------
  alpha Z        PSCENC =        42.24377253
  Ewald energy   TEWEN  =      5915.53598193
  -Hartree energ DENC   =     -8093.59720679
  -exchange      EXHF   =         0.00000000
  -V(xc)+E(xc)   XCENC  =        36.71677323
  PAW double counting   =      2589.65603590    -2532.15613346
  entropy T*S    EENTRO =        -0.00000000
  eigenvalues    EBANDS =      -211.32679121
  atomic energy  EATOM  =      2236.30457717
  Solvation  Ediel_sol  =         0.00000000
  ---------------------------------------------------
  free energy    TOTEN  =       -16.62299071 eV

  energy without entropy =      -16.62299071  energy(sigma->0) =      -16.62299071


--------------------------------------------------------------------------------------------------------




--------------------------------------- Iteration      1(   8)  ---------------------------------------


    POTLOK:  cpu time    0.2458: real time    0.2458
    SETDIJ:  cpu time    0.0067: real time    0.0067
     EDDAV:  cpu time    0.7954: real time    0.7955
       DOS:  cpu time    0.0002: real time    0.0002
    CHARGE:  cpu time    0.0867: real time    0.0867
    MIXING:  cpu time    0.0079: real time    0.0079
    --------------------------------------------
      LOOP:  cpu time    1.1428: real time    1.1429

 eigenvalue-minimisations  :   830
 total energy-change (2. order) :-0.5915616E-01  (-0.4408683E-01)
 number of electron      34.0000006 magnetization 
 augmentation part        3.8268442 magnetization 

 DIPCOR: dipole corrections for dipol
 direction  3 min pos   187,
 dipolmoment           0.000000      0.000000     -0.073850 electrons x Angstroem
 Tr[quadrupol]       -79.818517

 energy correction for charged system         0.000000 eV
 dipol+quadrupol energy correction           -0.002143 eV
 added-field ion interaction         -0.011464 eV  (added to PSCEN)


 Broyden mixing:
  rms(total) = 0.25859E+00    rms(broyden)= 0.25854E+00
  rms(prec ) = 0.31434E+00
  weight for this iteration     100.00

 eigenvalues of (default mixing * dielectric matrix)
  average eigenvalue GAMMA=   1.2611
  2.4340  0.9462  0.4030

 Free energy of the ion-electron system (eV)
  ---------------------------------------------------
  alpha Z        PSCENC =        42.13690722
  Ewald energy   TEWEN  =      5915.53598193
  -Hartree energ DENC   =     -8092.91113887
  -exchange      EXHF   =         0.00000000
  -V(xc)+E(xc)   XCENC  =        36.73116936
  PAW double counting   =      2706.26782267    -2649.44738277
  entropy T*S    EENTRO =        -0.00000000
  eigenvalues    EBANDS =      -211.30008359
  atomic energy  EATOM  =      2236.30457717
  Solvation  Ediel_sol  =         0.00000000
  ---------------------------------------------------
  free energy    TOTEN  =       -16.68214687 eV

  energy without entropy =      -16.68214687  energy(sigma->0) =      -16.68214687


--------------------------------------------------------------------------------------------------------




--------------------------------------- Iteration      1(   9)  ---------------------------------------


    POTLOK:  cpu time    0.2432: real time    0.2433
    SETDIJ:  cpu time    0.0066: real time    0.0066
     EDDAV:  cpu time    0.7888: real time    0.7888
       DOS:  cpu time    0.0002: real time    0.0002
    CHARGE:  cpu time    0.0868: real time    0.0868
    MIXING:  cpu time    0.0080: real time    0.0080
    --------------------------------------------
      LOOP:  cpu time    1.1336: real time    1.1337

 eigenvalue-minimisations  :   818
 total energy-change (2. order) : 0.1150164E+00  (-0.1640707E-01)
 number of electron      34.0000006 magnetization 
 augmentation part        3.8554778 magnetization 

 DIPCOR: dipole corrections for dipol
 direction  3 min pos   194,
 dipolmoment           0.000000      0.000000     -0.034401 electrons x Angstroem
 Tr[quadrupol]       -79.764796

 energy correction for charged system         0.000000 eV
 dipol+quadrupol energy correction           -0.000465 eV
 added-field ion interaction         -0.541483 eV  (added to PSCEN)


 Broyden mixing:
  rms(total) = 0.42060E-01    rms(broyden)= 0.41973E-01
  rms(prec ) = 0.44298E-01
  weight for this iteration     100.00

 eigenvalues of (default mixing * dielectric matrix)
  average eigenvalue GAMMA=   1.2904
  2.4689  1.4118  0.8885  0.3923

 Free energy of the ion-electron system (eV)
  ---------------------------------------------------
  alpha Z        PSCENC =        41.60856605
  Ewald energy   TEWEN  =      5915.53598193
  -Hartree energ DENC   =     -8091.89538287
  -exchange      EXHF   =         0.00000000
  -V(xc)+E(xc)   XCENC  =        36.73911591
  PAW double counting   =      2732.10378456    -2675.41349788
  entropy T*S    EENTRO =        -0.00000000
  eigenvalues    EBANDS =      -211.55027534
  atomic energy  EATOM  =      2236.30457717
  Solvation  Ediel_sol  =         0.00000000
  ---------------------------------------------------
  free energy    TOTEN  =       -16.56713048 eV

  energy without entropy =      -16.56713048  energy(sigma->0) =      -16.56713048


--------------------------------------------------------------------------------------------------------




--------------------------------------- Iteration      1(  10)  ---------------------------------------


    POTLOK:  cpu time    0.2441: real time    0.2442
    SETDIJ:  cpu time    0.0068: real time    0.0068
     EDDAV:  cpu time    0.7725: real time    0.7725
       DOS:  cpu time    0.0002: real time    0.0002
    CHARGE:  cpu time    0.0906: real time    0.0906
    MIXING:  cpu time    0.0081: real time    0.0081
    --------------------------------------------
      LOOP:  cpu time    1.1223: real time    1.1224

 eigenvalue-minimisations  :   794
 total energy-change (2. order) : 0.7950785E-03  (-0.2569189E-02)
 number of electron      34.0000006 magnetization 
 augmentation part        3.8542072 magnetization 

 DIPCOR: dipole corrections for dipol
 direction  3 min pos   196,
 dipolmoment           0.000000      0.000000     -0.040327 electrons x Angstroem
 Tr[quadrupol]       -79.740157

 energy correction for charged system         0.000000 eV
 dipol+quadrupol energy correction           -0.000639 eV
 added-field ion interaction         -0.814318 eV  (added to PSCEN)


 Broyden mixing:
  rms(total) = 0.14141E-01    rms(broyden)= 0.14138E-01
  rms(prec ) = 0.16193E-01
  weight for this iteration     100.00

 eigenvalues of (default mixing * dielectric matrix)
  average eigenvalue GAMMA=   1.2181
  2.4729  1.4322  0.9012  0.9012  0.3831

 Free energy of the ion-electron system (eV)
  ---------------------------------------------------
  alpha Z        PSCENC =        41.33555635
  Ewald energy   TEWEN  =      5915.53598193
  -Hartree energ DENC   =     -8092.13879156
  -exchange      EXHF   =         0.00000000
  -V(xc)+E(xc)   XCENC  =        36.77419327
  PAW double counting   =      2738.71883754    -2681.98298043
  entropy T*S    EENTRO =        -0.00000000
  eigenvalues    EBANDS =      -211.11370968
  atomic energy  EATOM  =      2236.30457717
  Solvation  Ediel_sol  =         0.00000000
  ---------------------------------------------------
  free energy    TOTEN  =       -16.56633540 eV

  energy without entropy =      -16.56633540  energy(sigma->0) =      -16.56633540


--------------------------------------------------------------------------------------------------------




--------------------------------------- Iteration      1(  11)  ---------------------------------------


    POTLOK:  cpu time    0.2379: real time    0.2380
    SETDIJ:  cpu time    0.0135: real time    0.0135
     EDDAV:  cpu time    0.7998: real time    0.7999
       DOS:  cpu time    0.0002: real time    0.0002
    CHARGE:  cpu time    0.0917: real time    0.0917
    MIXING:  cpu time    0.0082: real time    0.0082
    --------------------------------------------
      LOOP:  cpu time    1.1513: real time    1.1515

 eigenvalue-minimisations  :   830
 total energy-change (2. order) : 0.6732705E-04  (-0.1990437E-03)
 number of electron      34.0000006 magnetization 
 augmentation part        3.8513192 magnetization 

 DIPCOR: dipole corrections for dipol
 direction  3 min pos   198,
 dipolmoment           0.000000      0.000000     -0.039435 electrons x Angstroem
 Tr[quadrupol]       -79.738458

 energy correction for charged system         0.000000 eV
 dipol+quadrupol energy correction           -0.000611 eV
 added-field ion interaction         -0.971918 eV  (added to PSCEN)


 Broyden mixing:
  rms(total) = 0.82132E-02    rms(broyden)= 0.82110E-02
  rms(prec ) = 0.85350E-02
  weight for this iteration     100.00

 eigenvalues of (default mixing * dielectric matrix)
  average eigenvalue GAMMA=   1.2431
  2.3953  1.9731  0.3834  0.8669  0.8669  0.9731

 Free energy of the ion-electron system (eV)
  ---------------------------------------------------
  alpha Z        PSCENC =        41.17798493
  Ewald energy   TEWEN  =      5915.53598193
  -Hartree energ DENC   =     -8092.52298428
  -exchange      EXHF   =         0.00000000
  -V(xc)+E(xc)   XCENC  =        36.78075834
  PAW double counting   =      2737.91744813    -2681.17310597
  entropy T*S    EENTRO =        -0.00000000
  eigenvalues    EBANDS =      -210.58692832
  atomic energy  EATOM  =      2236.30457717
  Solvation  Ediel_sol  =         0.00000000
  ---------------------------------------------------
  free energy    TOTEN  =       -16.56626807 eV

  energy without entropy =      -16.56626807  energy(sigma->0) =      -16.56626807


--------------------------------------------------------------------------------------------------------




--------------------------------------- Iteration      1(  12)  ---------------------------------------


    POTLOK:  cpu time    0.2425: real time    0.2425
    SETDIJ:  cpu time    0.0086: real time    0.0086
     EDDAV:  cpu time    0.7764: real time    0.7765
       DOS:  cpu time    0.0002: real time    0.0002
    --------------------------------------------
      LOOP:  cpu time    1.0277: real time    1.0278

 eigenvalue-minimisations  :   790
 total energy-change (2. order) :-0.2907294E-04  (-0.1808128E-04)
 number of electron      34.0000006 magnetization 
 augmentation part        3.8513192 magnetization 

 DIPCOR: dipole corrections for dipol
 direction  3 min pos   199,
 dipolmoment           0.000000      0.000000     -0.039005 electrons x Angstroem
 Tr[quadrupol]       -79.737877

 energy correction for charged system         0.000000 eV
 dipol+quadrupol energy correction           -0.000598 eV
 added-field ion interaction         -1.048160 eV  (added to PSCEN)


 Free energy of the ion-electron system (eV)
  ---------------------------------------------------
  alpha Z        PSCENC =        41.10175633
  Ewald energy   TEWEN  =      5915.53598193
  -Hartree energ DENC   =     -8092.76785565
  -exchange      EXHF   =         0.00000000
  -V(xc)+E(xc)   XCENC  =        36.78560062
  PAW double counting   =      2735.52350818    -2678.76746573
  entropy T*S    EENTRO =        -0.00000000
  eigenvalues    EBANDS =      -210.28240000
  atomic energy  EATOM  =      2236.30457717
  Solvation  Ediel_sol  =         0.00000000
  ---------------------------------------------------
  free energy    TOTEN  =       -16.56629715 eV

  energy without entropy =      -16.56629715  energy(sigma->0) =      -16.56629715


--------------------------------------------------------------------------------------------------------




 average (electrostatic) potential at core
  the test charge radii are     0.9406  1.0178  1.2059
  (the norm of the test charge is              1.0000)
       1 -97.8104       2 -67.9667       3 -75.1398       4 -75.0911
 
 
 
 E-fermi :  -1.5615     XC(G=0):  -4.3349     alpha+bet : -3.9348


 k-point     1 :       0.0000    0.0000    0.0000
  band No.  band energies     occupation 
      1     -17.6298      2.00000
      2     -17.4952      2.00000
      3      -8.1134      2.00000
      4      -6.8805      2.00000
      5      -6.8781      2.00000
      6      -6.8593      2.00000
      7      -5.8836      2.00000
      8      -5.8496      2.00000
      9      -4.4733      2.00000
     10      -4.4583      2.00000
     11      -3.8271      2.00000
     12      -2.8909      2.00000
     13      -2.8702      2.00000
     14      -2.7826      2.00000
     15      -2.2014      2.00000
     16      -2.1950      2.00000
     17      -2.1039      2.00000
     18      -0.3411      0.00000
     19      -0.3143      0.00000
     20       2.0810      0.00000
     21       3.1791      0.00000
     22       3.7860      0.00000

 k-point     2 :       0.2500    0.0000    0.0000
  band No.  band energies     occupation 
      1     -17.3831      2.00000
      2     -17.2885      2.00000
      3      -7.7517      2.00000
      4      -7.0538      2.00000
      5      -6.7539      2.00000
      6      -6.6333      2.00000
      7      -6.2900      2.00000
      8      -5.5204      2.00000
      9      -5.1518      2.00000
     10      -4.7149      2.00000
     11      -4.4852      2.00000
     12      -3.1372      2.00000
     13      -2.9520      2.00000
     14      -2.9425      2.00000
     15      -2.3059      2.00000
     16      -2.2871      2.00000
     17      -2.0128      2.00000
     18      -0.2441      0.00000
     19       0.2097      0.00000
     20       3.5377      0.00000
     21       3.9264      0.00000
     22       4.4383      0.00000

 k-point     3 :       0.5000    0.0000    0.0000
  band No.  band energies     occupation 
      1     -17.1645      2.00000
      2     -17.0171      2.00000
      3      -7.8522      2.00000
      4      -7.5478      2.00000
      5      -6.5741      2.00000
      6      -6.5435      2.00000
      7      -6.1428      2.00000
      8      -5.8128      2.00000
      9      -4.7676      2.00000
     10      -4.5452      2.00000
     11      -3.5332      2.00000
     12      -3.3550      2.00000
     13      -3.2668      2.00000
     14      -3.0314      2.00000
     15      -2.9809      2.00000
     16      -2.9778      2.00000
     17      -2.4873      2.00000
     18      -0.2613      0.00000
     19       1.1402      0.00000
     20       2.2965      0.00000
     21       4.5057      0.00000
     22       4.8032      0.00000

 k-point     4 :      -0.2500   -0.0000    0.0000
  band No.  band energies     occupation 
      1     -17.3831      2.00000
      2     -17.2885      2.00000
      3      -7.7517      2.00000
      4      -7.0538      2.00000
      5      -6.7539      2.00000
      6      -6.6333      2.00000
      7      -6.2900      2.00000
      8      -5.5204      2.00000
      9      -5.1518      2.00000
     10      -4.7149      2.00000
     11      -4.4852      2.00000
     12      -3.1372      2.00000
     13      -2.9520      2.00000
     14      -2.9425      2.00000
     15      -2.3059      2.00000
     16      -2.2871      2.00000
     17      -2.0128      2.00000
     18      -0.2441      0.00000
     19       0.2097      0.00000
     20       3.5377      0.00000
     21       3.9264      0.00000
     22       4.4383      0.00000

 k-point     5 :       0.0000    0.2500    0.0000
  band No.  band energies     occupation 
      1     -17.3791      2.00000
      2     -17.2840      2.00000
      3      -7.7417      2.00000
      4      -7.0562      2.00000
      5      -6.7532      2.00000
      6      -6.6252      2.00000
      7      -6.2887      2.00000
      8      -5.5422      2.00000
      9      -5.1590      2.00000
     10      -4.7444      2.00000
     11      -4.4626      2.00000
     12      -3.1316      2.00000
     13      -2.9654      2.00000
     14      -2.9394      2.00000
     15      -2.3026      2.00000
     16      -2.2822      2.00000
     17      -2.0054      2.00000
     18      -0.2648      0.00000
     19       0.2364      0.00000
     20       3.5550      0.00000
     21       3.9322      0.00000
     22       4.4453      0.00000

 k-point     6 :       0.2500    0.2500    0.0000
  band No.  band energies     occupation 
      1     -17.1636      2.00000
      2     -17.0140      2.00000
      3      -7.5341      2.00000
      4      -7.0778      2.00000
      5      -7.0112      2.00000
      6      -6.3188      2.00000
      7      -6.2156      2.00000
      8      -5.8871      2.00000
      9      -5.3801      2.00000
     10      -5.1508      2.00000
     11      -3.8373      2.00000
     12      -3.4563      2.00000
     13      -3.2295      2.00000
     14      -3.0181      2.00000
     15      -2.9633      2.00000
     16      -2.3730      2.00000
     17      -2.0563      2.00000
     18      -0.3251      0.00000
     19       1.2478      0.00000
     20       3.0042      0.00000
     21       4.5471      0.00000
     22       5.5038      0.00000

 k-point     7 :       0.5000    0.2500    0.0000
  band No.  band energies     occupation 
      1     -17.1655      2.00000
      2     -17.0167      2.00000
      3      -7.5266      2.00000
      4      -7.0691      2.00000
      5      -7.0198      2.00000
      6      -6.3160      2.00000
      7      -6.2132      2.00000
      8      -5.8914      2.00000
      9      -5.3834      2.00000
     10      -5.1545      2.00000
     11      -3.8399      2.00000
     12      -3.4512      2.00000
     13      -3.2406      2.00000
     14      -3.0213      2.00000
     15      -2.9638      2.00000
     16      -2.3668      2.00000
     17      -2.0566      2.00000
     18      -0.3205      0.00000
     19       1.2329      0.00000
     20       3.0116      0.00000
     21       4.5529      0.00000
     22       5.5084      0.00000

 k-point     8 :      -0.2500    0.2500    0.0000
  band No.  band energies     occupation 
      1     -17.3810      2.00000
      2     -17.2862      2.00000
      3      -7.7465      2.00000
      4      -7.0550      2.00000
      5      -6.7537      2.00000
      6      -6.6290      2.00000
      7      -6.2893      2.00000
      8      -5.5317      2.00000
      9      -5.1558      2.00000
     10      -4.7297      2.00000
     11      -4.4735      2.00000
     12      -3.1343      2.00000
     13      -2.9615      2.00000
     14      -2.9383      2.00000
     15      -2.3046      2.00000
     16      -2.2842      2.00000
     17      -2.0091      2.00000
     18      -0.2551      0.00000
     19       0.2238      0.00000
     20       3.5466      0.00000
     21       3.9294      0.00000
     22       4.4419      0.00000

 k-point     9 :       0.0000    0.5000    0.0000
  band No.  band energies     occupation 
      1     -17.1570      2.00000
      2     -17.0063      2.00000
      3      -7.8426      2.00000
      4      -7.5486      2.00000
      5      -6.5753      2.00000
      6      -6.5532      2.00000
      7      -6.1377      2.00000
      8      -5.8443      2.00000
      9      -4.7521      2.00000
     10      -4.5467      2.00000
     11      -3.5536      2.00000
     12      -3.3451      2.00000
     13      -3.2878      2.00000
     14      -3.0350      2.00000
     15      -2.9642      2.00000
     16      -2.9424      2.00000
     17      -2.4863      2.00000
     18      -0.2824      0.00000
     19       1.2007      0.00000
     20       2.2715      0.00000
     21       4.5056      0.00000
     22       4.7699      0.00000

 k-point    10 :       0.2500    0.5000    0.0000
  band No.  band energies     occupation 
      1     -17.1616      2.00000
      2     -17.0112      2.00000
      3      -7.5419      2.00000
      4      -7.0869      2.00000
      5      -7.0023      2.00000
      6      -6.3218      2.00000
      7      -6.2183      2.00000
      8      -5.8824      2.00000
      9      -5.3762      2.00000
     10      -5.1474      2.00000
     11      -3.8348      2.00000
     12      -3.4614      2.00000
     13      -3.2160      2.00000
     14      -3.0181      2.00000
     15      -2.9610      2.00000
     16      -2.3794      2.00000
     17      -2.0561      2.00000
     18      -0.3297      0.00000
     19       1.2634      0.00000
     20       2.9964      0.00000
     21       4.5411      0.00000
     22       5.4992      0.00000

 k-point    11 :       0.5000    0.5000    0.0000
  band No.  band energies     occupation 
      1     -17.1606      2.00000
      2     -17.0116      2.00000
      3      -7.8474      2.00000
      4      -7.5482      2.00000
      5      -6.5748      2.00000
      6      -6.5485      2.00000
      7      -6.1400      2.00000
      8      -5.8289      2.00000
      9      -4.7596      2.00000
     10      -4.5461      2.00000
     11      -3.5441      2.00000
     12      -3.3498      2.00000
     13      -3.2782      2.00000
     14      -3.0312      2.00000
     15      -2.9727      2.00000
     16      -2.9604      2.00000
     17      -2.4867      2.00000
     18      -0.2722      0.00000
     19       1.1711      0.00000
     20       2.2841      0.00000
     21       4.5064      0.00000
     22       4.7856      0.00000

 k-point    12 :      -0.2500    0.5000    0.0000
  band No.  band energies     occupation 
      1     -17.1616      2.00000
      2     -17.0112      2.00000
      3      -7.5419      2.00000
      4      -7.0869      2.00000
      5      -7.0023      2.00000
      6      -6.3218      2.00000
      7      -6.2183      2.00000
      8      -5.8824      2.00000
      9      -5.3762      2.00000
     10      -5.1474      2.00000
     11      -3.8348      2.00000
     12      -3.4614      2.00000
     13      -3.2160      2.00000
     14      -3.0181      2.00000
     15      -2.9610      2.00000
     16      -2.3794      2.00000
     17      -2.0561      2.00000
     18      -0.3297      0.00000
     19       1.2634      0.00000
     20       2.9964      0.00000
     21       4.5411      0.00000
     22       5.4992      0.00000

 k-point    13 :      -0.0000   -0.2500    0.0000
  band No.  band energies     occupation 
      1     -17.3791      2.00000
      2     -17.2840      2.00000
      3      -7.7417      2.00000
      4      -7.0562      2.00000
      5      -6.7532      2.00000
      6      -6.6252      2.00000
      7      -6.2887      2.00000
      8      -5.5422      2.00000
      9      -5.1590      2.00000
     10      -4.7444      2.00000
     11      -4.4626      2.00000
     12      -3.1316      2.00000
     13      -2.9654      2.00000
     14      -2.9394      2.00000
     15      -2.3026      2.00000
     16      -2.2822      2.00000
     17      -2.0054      2.00000
     18      -0.2648      0.00000
     19       0.2364      0.00000
     20       3.5550      0.00000
     21       3.9322      0.00000
     22       4.4453      0.00000

 k-point    14 :       0.2500   -0.2500    0.0000
  band No.  band energies     occupation 
      1     -17.3810      2.00000
      2     -17.2862      2.00000
      3      -7.7465      2.00000
      4      -7.0550      2.00000
      5      -6.7537      2.00000
      6      -6.6290      2.00000
      7      -6.2893      2.00000
      8      -5.5317      2.00000
      9      -5.1558      2.00000
     10      -4.7297      2.00000
     11      -4.4735      2.00000
     12      -3.1343      2.00000
     13      -2.9615      2.00000
     14      -2.9383      2.00000
     15      -2.3046      2.00000
     16      -2.2842      2.00000
     17      -2.0091      2.00000
     18      -0.2551      0.00000
     19       0.2238      0.00000
     20       3.5466      0.00000
     21       3.9294      0.00000
     22       4.4419      0.00000

 k-point    15 :       0.5000   -0.2500    0.0000
  band No.  band energies     occupation 
      1     -17.1655      2.00000
      2     -17.0167      2.00000
      3      -7.5266      2.00000
      4      -7.0691      2.00000
      5      -7.0198      2.00000
      6      -6.3160      2.00000
      7      -6.2132      2.00000
      8      -5.8914      2.00000
      9      -5.3834      2.00000
     10      -5.1545      2.00000
     11      -3.8399      2.00000
     12      -3.4512      2.00000
     13      -3.2406      2.00000
     14      -3.0213      2.00000
     15      -2.9638      2.00000
     16      -2.3668      2.00000
     17      -2.0566      2.00000
     18      -0.3205      0.00000
     19       1.2329      0.00000
     20       3.0116      0.00000
     21       4.5529      0.00000
     22       5.5084      0.00000

 k-point    16 :      -0.2500   -0.2500    0.0000
  band No.  band energies     occupation 
      1     -17.1636      2.00000
      2     -17.0140      2.00000
      3      -7.5341      2.00000
      4      -7.0778      2.00000
      5      -7.0112      2.00000
      6      -6.3188      2.00000
      7      -6.2156      2.00000
      8      -5.8871      2.00000
      9      -5.3801      2.00000
     10      -5.1508      2.00000
     11      -3.8373      2.00000
     12      -3.4563      2.00000
     13      -3.2295      2.00000
     14      -3.0181      2.00000
     15      -2.9633      2.00000
     16      -2.3730      2.00000
     17      -2.0563      2.00000
     18      -0.3251      0.00000
     19       1.2478      0.00000
     20       3.0042      0.00000
     21       4.5471      0.00000
     22       5.5037      0.00000


--------------------------------------------------------------------------------------------------------


 soft charge-density along one line, spin component           1
         0         1         2         3         4         5         6         7         8         9
 total charge-density along one line
 
 pseudopotential strength for first ion, spin component:           1
 49.283  51.723  -0.000   0.038  -0.000  -0.000   0.047  -0.000
 51.723  54.286  -0.000   0.040  -0.000  -0.000   0.049  -0.000
 -0.000  -0.000   9.300  -0.000  -0.000  11.527  -0.000  -0.000
  0.038   0.040  -0.000   9.298  -0.000  -0.000  11.526  -0.000
 -0.000  -0.000  -0.000  -0.000   9.300  -0.000  -0.000  11.527
 -0.000  -0.000  11.527  -0.000  -0.000  14.304  -0.000  -0.000
  0.047   0.049  -0.000  11.526  -0.000  -0.000  14.302  -0.000
 -0.000  -0.000  -0.000  -0.000  11.527  -0.000  -0.000  14.304
 total augmentation occupancy for first ion, spin component:           1
  8.250  -6.223   0.022  -2.976   0.013  -0.009   1.237  -0.006
 -6.223   6.150  -0.021   2.785  -0.013   0.010  -1.223   0.006
  0.022  -0.021   3.533  -0.008  -0.001  -1.029   0.005   0.000
 -2.976   2.785  -0.008   3.324  -0.005   0.005  -0.899   0.003
  0.013  -0.013  -0.001  -0.005   3.527   0.000   0.003  -1.026
 -0.009   0.010  -1.029   0.005   0.000   0.462  -0.002  -0.000
  1.237  -1.223   0.005  -0.899   0.003  -0.002   0.413  -0.001
 -0.006   0.006   0.000   0.003  -1.026  -0.000  -0.001   0.459


------------------------ aborting loop because EDIFF is reached ----------------------------------------


    CHARGE:  cpu time    0.0875: real time    0.0875
    FORLOC:  cpu time    0.0179: real time    0.0179
    FORNL :  cpu time    0.1015: real time    0.1015
    STRESS:  cpu time    0.5349: real time    0.5349
    FORCOR:  cpu time    0.2407: real time    0.2407
    FORHAR:  cpu time    0.0464: real time    0.0464
    MIXING:  cpu time    0.0078: real time    0.0078
    OFIELD:  cpu time    0.0000: real time    0.0000

 ---------------------------------------------------------------------------------------------

         DFTD3 V3.0 Rev 1        
 IVDW         = 11
 DF pbe       
 parameters
 VDW_S6       =    1.0000
 VDW_S8       =    0.7220
 VDW_SR       =    1.2170
 rs18     =    1.0000
 alpha6   =   14.0000
 alpha8   =   16.0000
 k1-k3    =   16.0000    1.3333   -4.0000
 VDW_RADIUS   =   50.2022 A
 VDW_CNRADIUS =   21.1671 A
 Edisp (eV)   -1.23242

 E6    (eV) :    -0.3552
 E8    (eV) :    -0.8772
 % E8        : 71.18
    FORVDW:  cpu time    0.0173: real time    0.0173

  FORCE on cell =-STRESS in cart. coord.  units (eV):
  Direction    XX          YY          ZZ          XY          YZ          ZX
  --------------------------------------------------------------------------------------
  Alpha Z    42.15051    42.15051    42.15051
  Ewald    7428.38414  7430.80929 -8943.65772    -0.68783    -3.06049    -1.86333
  Hartree  7909.04592  7910.07721 -7724.96222    -0.29529    -1.09714    -0.66990
  E(xc)    -140.94785  -140.96081  -141.41760     0.00363    -0.00241    -0.00151
  Local  -15964.19745-15967.84463 16035.10518     1.03747     3.99871     2.43683
  n-local   141.43155   141.70037   143.06244    -0.07487    -0.11839    -0.07136
  augment    78.82552    78.84222    79.75792    -0.00504     0.02772     0.01682
  Kinetic   505.49042   505.75173   509.72993    -0.07377     0.11972     0.07302
  Fock        0.00000     0.00000     0.00000     0.00000     0.00000     0.00000
  vdW        -0.79875    -0.78235    -0.23912    -0.00460     0.00272     0.00167
  -------------------------------------------------------------------------------------
  Total      -0.61597    -0.25647    -0.47068    -0.10030    -0.12956    -0.07776
  in kB      -4.28566    -1.78438    -3.27478    -0.69781    -0.90140    -0.54098
  external pressure =       -3.11 kB  Pullay stress =        0.00 kB


 VOLUME and BASIS-vectors are now :
 -----------------------------------------------------------------------------
  energy-cutoff  :      300.00
  volume of cell :      230.28
      direct lattice vectors                 reciprocal lattice vectors
     3.655129703 -0.036443352  0.000000000     0.275135468  0.155194915  0.000000000
    -1.786911496  3.167904907  0.000000000     0.003165139  0.317451392  0.000000000
     0.000000000  0.000000000 20.000000000     0.000000000  0.000000000  0.050000000

  length of vectors
     3.655311377  3.637124440 20.000000000     0.315887618  0.317467171  0.050000000


 FORCES acting on ions
    electron-ion (+dipol)            ewald-force                    non-local-force                 convergence-correction
 -----------------------------------------------------------------------------------------------
   -.420E+00 -.690E+00 0.986E+03   0.441E+00 0.724E+00 -.991E+03   -.753E-02 -.126E-01 0.559E+01   -.147E-03 -.438E-03 -.926E-01
   0.346E+00 0.568E+00 -.995E+03   -.360E+00 -.591E+00 0.997E+03   -.279E-02 -.439E-02 -.273E+01   0.802E-04 0.264E-03 0.112E+00
   0.134E+00 0.221E+00 -.565E+03   -.127E+00 -.210E+00 0.558E+03   -.165E-01 -.269E-01 0.648E+01   -.378E-04 -.922E-04 0.164E+00
   -.490E-01 -.795E-01 0.570E+03   0.465E-01 0.762E-01 -.564E+03   0.154E-01 0.252E-01 -.638E+01   0.186E-03 0.815E-04 -.668E-01
 -----------------------------------------------------------------------------------------------
   0.113E-01 0.188E-01 -.308E+01   -.597E-15 -.227E-13 0.114E-12   -.114E-01 -.186E-01 0.296E+01   0.811E-04 -.184E-03 0.117E+00
 
 
 POSITION                                       TOTAL-FORCE (eV/Angst)
 -----------------------------------------------------------------------------------
     -0.89327      1.58383      3.36693         0.012168      0.020244      0.041279
     -0.89327      1.58382      7.71448        -0.015755     -0.026196     -0.050957
      0.92075      0.51571      6.20974        -0.009385     -0.015720     -0.048124
      0.94785      2.61550      4.71353         0.012971      0.021673      0.057802
 -----------------------------------------------------------------------------------
    total drift:                                0.000009      0.000026     -0.004563


--------------------------------------------------------------------------------------------------------



  FREE ENERGIE OF THE ION-ELECTRON SYSTEM (eV)
  ---------------------------------------------------
  free  energy   TOTEN  =       -17.79871679 eV

  energy  without entropy=      -17.79871679  energy(sigma->0) =      -17.79871679
 


--------------------------------------------------------------------------------------------------------


    POTLOK:  cpu time    0.2424: real time    0.2424


--------------------------------------------------------------------------------------------------------


 Quasi-Newton relaxation of ions (Broydens 2nd method)
  g(Force)  = 0.599E-03   g(Stress)= 0.793E-03

 Reset! Starting new Quasi-Newton update for ions 


--------------------------------------------------------------------------------------------------------


    WAVPRE:  cpu time    0.8861: real time    0.8862
    FEWALD:  cpu time    0.0002: real time    0.0002
    GENKIN:  cpu time    0.0215: real time    0.0215
    ORTHCH:  cpu time    0.0174: real time    0.0174
     LOOP+:  cpu time   14.6389: real time   14.6403


--------------------------------------- Iteration      2(   1)  ---------------------------------------


    POTLOK:  cpu time    0.2422: real time    0.2423
    SETDIJ:  cpu time    0.0067: real time    0.0067
     EDDAV:  cpu time    0.7160: real time    0.7160
       DOS:  cpu time    0.0002: real time    0.0002
    CHARGE:  cpu time    0.0854: real time    0.0854
    MIXING:  cpu time    0.0077: real time    0.0077
    --------------------------------------------
      LOOP:  cpu time    1.0582: real time    1.0584

 eigenvalue-minimisations  :   704
 total energy-change (2. order) :-0.5923974E-03  (-0.2232820E-01)
 number of electron      34.0000007 magnetization 
 augmentation part        3.8309699 magnetization 

 DIPCOR: dipole corrections for dipol
 direction  3 min pos   199,
 dipolmoment           0.000000      0.000000     -0.038462 electrons x Angstroem
 Tr[quadrupol]       -79.359131

 energy correction for charged system         0.000000 eV
 dipol+quadrupol energy correction           -0.000583 eV
 added-field ion interaction         -1.036736 eV  (added to PSCEN)


 Broyden mixing:
  rms(total) = 0.37086E-01    rms(broyden)= 0.37072E-01
  rms(prec ) = 0.39395E-01
  weight for this iteration     100.00

 Free energy of the ion-electron system (eV)
  ---------------------------------------------------
  alpha Z        PSCENC =        41.24397759
  Ewald energy   TEWEN  =      5945.90999023
[...]
  band No.  band energies     occupation 
      1     -17.1794      2.00000
      2     -17.0402      2.00000
      3      -7.8809      2.00000
      4      -7.5760      2.00000
      5      -6.5939      2.00000
      6      -6.5692      2.00000
      7      -6.1633      2.00000
      8      -5.8300      2.00000
      9      -4.7913      2.00000
     10      -4.5655      2.00000
     11      -3.5502      2.00000
     12      -3.3691      2.00000
     13      -3.2799      2.00000
     14      -3.0516      2.00000
     15      -2.9961      2.00000
     16      -2.9844      2.00000
     17      -2.4975      2.00000
     18      -0.2608      0.00000
     19       1.1442      0.00000
     20       2.2994      0.00000
     21       4.5022      0.00000
     22       4.8042      0.00000

 k-point     4 :      -0.2500   -0.0000    0.0000
  band No.  band energies     occupation 
      1     -17.4010      2.00000
      2     -17.3115      2.00000
      3      -7.7777      2.00000
      4      -7.0831      2.00000
      5      -6.7771      2.00000
      6      -6.6594      2.00000
      7      -6.3128      2.00000
      8      -5.5352      2.00000
      9      -5.1758      2.00000
     10      -4.7358      2.00000
     11      -4.5075      2.00000
     12      -3.1510      2.00000
     13      -2.9686      2.00000
     14      -2.9527      2.00000
     15      -2.3174      2.00000
     16      -2.2915      2.00000
     17      -2.0168      2.00000
     18      -0.2427      0.00000
     19       0.2138      0.00000
     20       3.5435      0.00000
     21       3.9422      0.00000
     22       4.4738      0.00000

 k-point     5 :       0.0000    0.2500    0.0000
  band No.  band energies     occupation 
      1     -17.3957      2.00000
      2     -17.3057      2.00000
      3      -7.7649      2.00000
      4      -7.0827      2.00000
      5      -6.7820      2.00000
      6      -6.6527      2.00000
      7      -6.3103      2.00000
      8      -5.5676      2.00000
      9      -5.1799      2.00000
     10      -4.7730      2.00000
     11      -4.4774      2.00000
     12      -3.1423      2.00000
     13      -2.9791      2.00000
     14      -2.9489      2.00000
     15      -2.3083      2.00000
     16      -2.2917      2.00000
     17      -2.0093      2.00000
     18      -0.2629      0.00000
     19       0.2419      0.00000
     20       3.5637      0.00000
     21       3.9507      0.00000
     22       4.4843      0.00000

 k-point     6 :       0.2500    0.2500    0.0000
  band No.  band energies     occupation 
      1     -17.1775      2.00000
      2     -17.0355      2.00000
      3      -7.5619      2.00000
      4      -7.1042      2.00000
      5      -7.0373      2.00000
      6      -6.3395      2.00000
      7      -6.2422      2.00000
      8      -5.9074      2.00000
      9      -5.4031      2.00000
     10      -5.1725      2.00000
     11      -3.8521      2.00000
     12      -3.4735      2.00000
     13      -3.2420      2.00000
     14      -3.0301      2.00000
     15      -2.9772      2.00000
     16      -2.3812      2.00000
     17      -2.0611      2.00000
     18      -0.3230      0.00000
     19       1.2542      0.00000
     20       3.0079      0.00000
     21       4.5435      0.00000
     22       5.5057      0.00000

 k-point     7 :       0.5000    0.2500    0.0000
  band No.  band energies     occupation 
      1     -17.1805      2.00000
      2     -17.0397      2.00000
      3      -7.5506      2.00000
      4      -7.0919      2.00000
      5      -7.0473      2.00000
      6      -6.3357      2.00000
      7      -6.2381      2.00000
      8      -5.9129      2.00000
      9      -5.4076      2.00000
     10      -5.1774      2.00000
     11      -3.8573      2.00000
     12      -3.4648      2.00000
     13      -3.2613      2.00000
     14      -3.0374      2.00000
     15      -2.9797      2.00000
     16      -2.3733      2.00000
     17      -2.0600      2.00000
     18      -0.3173      0.00000
     19       1.2345      0.00000
     20       3.0168      0.00000
     21       4.5543      0.00000
     22       5.5150      0.00000

 k-point     8 :      -0.2500    0.2500    0.0000
  band No.  band energies     occupation 
      1     -17.3988      2.00000
      2     -17.3091      2.00000
      3      -7.7724      2.00000
      4      -7.0830      2.00000
      5      -6.7792      2.00000
      6      -6.6566      2.00000
      7      -6.3120      2.00000
      8      -5.5484      2.00000
      9      -5.1780      2.00000
     10      -4.7503      2.00000
     11      -4.4949      2.00000
     12      -3.1478      2.00000
     13      -2.9760      2.00000
     14      -2.9482      2.00000
     15      -2.3138      2.00000
     16      -2.2911      2.00000
     17      -2.0139      2.00000
     18      -0.2508      0.00000
     19       0.2252      0.00000
     20       3.5515      0.00000
     21       3.9456      0.00000
     22       4.4781      0.00000

 k-point     9 :       0.0000    0.5000    0.0000
  band No.  band energies     occupation 
      1     -17.1697      2.00000
      2     -17.0263      2.00000
      3      -7.8699      2.00000
      4      -7.5747      2.00000
      5      -6.6035      2.00000
      6      -6.5811      2.00000
      7      -6.1609      2.00000
      8      -5.8737      2.00000
      9      -4.7703      2.00000
     10      -4.5623      2.00000
     11      -3.5720      2.00000
     12      -3.3518      2.00000
     13      -3.3018      2.00000
     14      -3.0461      2.00000
     15      -2.9793      2.00000
     16      -2.9482      2.00000
     17      -2.4931      2.00000
     18      -0.2807      0.00000
     19       1.2072      0.00000
     20       2.2739      0.00000
     21       4.4968      0.00000
     22       4.7618      0.00000

 k-point    10 :       0.2500    0.5000    0.0000
  band No.  band energies     occupation 
      1     -17.1754      2.00000
      2     -17.0326      2.00000
      3      -7.5696      2.00000
      4      -7.1127      2.00000
      5      -7.0305      2.00000
      6      -6.3423      2.00000
      7      -6.2452      2.00000
      8      -5.9031      2.00000
      9      -5.3997      2.00000
     10      -5.1698      2.00000
     11      -3.8488      2.00000
     12      -3.4788      2.00000
     13      -3.2280      2.00000
     14      -3.0296      2.00000
     15      -2.9721      2.00000
     16      -2.3867      2.00000
     17      -2.0614      2.00000
     18      -0.3263      0.00000
     19       1.2669      0.00000
     20       3.0022      0.00000
     21       4.5359      0.00000
     22       5.4995      0.00000

 k-point    11 :       0.5000    0.5000    0.0000
  band No.  band energies     occupation 
      1     -17.1754      2.00000
      2     -17.0345      2.00000
      3      -7.8767      2.00000
      4      -7.5756      2.00000
      5      -6.5979      2.00000
      6      -6.5741      2.00000
      7      -6.1621      2.00000
      8      -5.8476      2.00000
      9      -4.7825      2.00000
     10      -4.5648      2.00000
     11      -3.5594      2.00000
     12      -3.3616      2.00000
     13      -3.2897      2.00000
     14      -3.0474      2.00000
     15      -2.9907      2.00000
     16      -2.9695      2.00000
     17      -2.4953      2.00000
     18      -0.2684      0.00000
     19       1.1688      0.00000
     20       2.2897      0.00000
     21       4.5007      0.00000
     22       4.7863      0.00000

 k-point    12 :      -0.2500    0.5000    0.0000
  band No.  band energies     occupation 
      1     -17.1754      2.00000
      2     -17.0326      2.00000
      3      -7.5696      2.00000
      4      -7.1127      2.00000
      5      -7.0305      2.00000
      6      -6.3423      2.00000
      7      -6.2452      2.00000
      8      -5.9031      2.00000
      9      -5.3997      2.00000
     10      -5.1698      2.00000
     11      -3.8488      2.00000
     12      -3.4788      2.00000
     13      -3.2280      2.00000
     14      -3.0296      2.00000
     15      -2.9721      2.00000
     16      -2.3867      2.00000
     17      -2.0614      2.00000
     18      -0.3263      0.00000
     19       1.2669      0.00000
     20       3.0022      0.00000
     21       4.5359      0.00000
     22       5.4995      0.00000

 k-point    13 :      -0.0000   -0.2500    0.0000
  band No.  band energies     occupation 
      1     -17.3957      2.00000
      2     -17.3057      2.00000
      3      -7.7649      2.00000
      4      -7.0827      2.00000
      5      -6.7820      2.00000
      6      -6.6527      2.00000
      7      -6.3103      2.00000
      8      -5.5676      2.00000
      9      -5.1799      2.00000
     10      -4.7730      2.00000
     11      -4.4774      2.00000
     12      -3.1423      2.00000
     13      -2.9791      2.00000
     14      -2.9489      2.00000
     15      -2.3083      2.00000
     16      -2.2917      2.00000
     17      -2.0093      2.00000
     18      -0.2629      0.00000
     19       0.2419      0.00000
     20       3.5637      0.00000
     21       3.9507      0.00000
     22       4.4843      0.00000

 k-point    14 :       0.2500   -0.2500    0.0000
  band No.  band energies     occupation 
      1     -17.3988      2.00000
      2     -17.3091      2.00000
      3      -7.7724      2.00000
      4      -7.0830      2.00000
      5      -6.7792      2.00000
      6      -6.6566      2.00000
      7      -6.3120      2.00000
      8      -5.5484      2.00000
      9      -5.1780      2.00000
     10      -4.7503      2.00000
     11      -4.4949      2.00000
     12      -3.1478      2.00000
     13      -2.9760      2.00000
     14      -2.9482      2.00000
     15      -2.3138      2.00000
     16      -2.2911      2.00000
     17      -2.0139      2.00000
     18      -0.2508      0.00000
     19       0.2252      0.00000
     20       3.5515      0.00000
     21       3.9456      0.00000
     22       4.4781      0.00000

 k-point    15 :       0.5000   -0.2500    0.0000
  band No.  band energies     occupation 
      1     -17.1805      2.00000
      2     -17.0397      2.00000
      3      -7.5506      2.00000
      4      -7.0919      2.00000
      5      -7.0473      2.00000
      6      -6.3357      2.00000
      7      -6.2381      2.00000
      8      -5.9129      2.00000
      9      -5.4076      2.00000
     10      -5.1774      2.00000
     11      -3.8573      2.00000
     12      -3.4648      2.00000
     13      -3.2613      2.00000
     14      -3.0374      2.00000
     15      -2.9797      2.00000
     16      -2.3733      2.00000
     17      -2.0600      2.00000
     18      -0.3173      0.00000
     19       1.2345      0.00000
     20       3.0168      0.00000
     21       4.5543      0.00000
     22       5.5150      0.00000

 k-point    16 :      -0.2500   -0.2500    0.0000
  band No.  band energies     occupation 
      1     -17.1775      2.00000
      2     -17.0355      2.00000
      3      -7.5619      2.00000
      4      -7.1042      2.00000
      5      -7.0373      2.00000
      6      -6.3395      2.00000
      7      -6.2422      2.00000
      8      -5.9074      2.00000
      9      -5.4031      2.00000
     10      -5.1725      2.00000
     11      -3.8521      2.00000
     12      -3.4735      2.00000
     13      -3.2420      2.00000
     14      -3.0301      2.00000
     15      -2.9772      2.00000
     16      -2.3812      2.00000
     17      -2.0611      2.00000
     18      -0.3230      0.00000
     19       1.2542      0.00000
     20       3.0079      0.00000
     21       4.5435      0.00000
     22       5.5057      0.00000


--------------------------------------------------------------------------------------------------------


 soft charge-density along one line, spin component           1
         0         1         2         3         4         5         6         7         8         9
 total charge-density along one line
 
 pseudopotential strength for first ion, spin component:           1
 49.287  51.726  -0.000   0.038  -0.000  -0.000   0.047  -0.000
 51.726  54.290  -0.000   0.040  -0.000  -0.001   0.049  -0.000
 -0.000  -0.000   9.300  -0.000  -0.000  11.528  -0.000  -0.000
  0.038   0.040  -0.000   9.299  -0.000  -0.000  11.526  -0.000
 -0.000  -0.000  -0.000  -0.000   9.300  -0.000  -0.000  11.528
 -0.000  -0.001  11.528  -0.000  -0.000  14.305  -0.000  -0.000
  0.047   0.049  -0.000  11.526  -0.000  -0.000  14.303  -0.000
 -0.000  -0.000  -0.000  -0.000  11.528  -0.000  -0.000  14.305
 total augmentation occupancy for first ion, spin component:           1
  8.338  -6.296   0.029  -2.983   0.013  -0.012   1.241  -0.005
 -6.296   6.208  -0.029   2.794  -0.013   0.013  -1.229   0.006
  0.029  -0.029   3.526  -0.011  -0.001  -1.026   0.006   0.000
 -2.983   2.794  -0.011   3.318  -0.005   0.006  -0.896   0.003
  0.013  -0.013  -0.001  -0.005   3.521   0.000   0.003  -1.023
 -0.012   0.013  -1.026   0.006   0.000   0.462  -0.002  -0.000
  1.241  -1.229   0.006  -0.896   0.003  -0.002   0.414  -0.001
 -0.005   0.006   0.000   0.003  -1.023  -0.000  -0.001   0.460


------------------------ aborting loop because EDIFF is reached ----------------------------------------


    CHARGE:  cpu time    0.0985: real time    0.0985
    FORLOC:  cpu time    0.0179: real time    0.0179
    FORNL :  cpu time    0.0994: real time    0.0994
    STRESS:  cpu time    0.5360: real time    0.5361
    FORCOR:  cpu time    0.2383: real time    0.2383
    FORHAR:  cpu time    0.0473: real time    0.0473
    MIXING:  cpu time    0.0075: real time    0.0075
    OFIELD:  cpu time    0.0000: real time    0.0000

 ---------------------------------------------------------------------------------------------

         DFTD3 V3.0 Rev 1        
 Edisp (eV)   -1.23424

 E6    (eV) :    -0.3560
 E8    (eV) :    -0.8783
 % E8        : 71.16
    FORVDW:  cpu time    0.0165: real time    0.0165

  FORCE on cell =-STRESS in cart. coord.  units (eV):
  Direction    XX          YY          ZZ          XY          YZ          ZX
  --------------------------------------------------------------------------------------
  Alpha Z    42.23156    42.23156    42.23156
  Ewald    7451.84565  7453.85469 -8968.59687    -0.38927    -3.65341    -1.61548
  Hartree  7930.90012  7931.83020 -7747.34802    -0.18973    -1.30773    -0.58371
  E(xc)    -140.99120  -141.00656  -141.46478     0.00391    -0.00506    -0.00207
  Local  -16009.56059-16012.78744 16082.18904     0.65258     4.73984     2.10574
  n-local   141.63655   141.90897   143.30342    -0.06037    -0.11038    -0.04842
  augment    78.78819    78.84640    79.75190    -0.01104     0.02691     0.01270
  Kinetic   505.51563   505.96039   509.85328    -0.08814     0.16038     0.07469
  Fock        0.00000     0.00000     0.00000     0.00000     0.00000     0.00000
  vdW        -0.79750    -0.77399    -0.23183    -0.00479     0.00426     0.00195
  -------------------------------------------------------------------------------------
  Total      -0.43159     0.06421    -0.31230    -0.08685    -0.14519    -0.05460
  in kB      -3.00859     0.44760    -2.17700    -0.60543    -1.01211    -0.38065
  external pressure =       -1.58 kB  Pullay stress =        0.00 kB


 VOLUME and BASIS-vectors are now :
 -----------------------------------------------------------------------------
  energy-cutoff  :      300.00
  volume of cell :      229.84
      direct lattice vectors                 reciprocal lattice vectors
     3.655129703 -0.036373414  0.000000000     0.275135468  0.155493318  0.000000000
    -1.786911496  3.161825462  0.000000000     0.003165139  0.318061776  0.000000000
     0.000000000  0.000000000 20.000000000     0.000000000  0.000000000  0.050000000

  length of vectors
     3.655310680  3.631830523 20.000000000     0.316034330  0.318077525  0.050000000


 FORCES acting on ions
    electron-ion (+dipol)            ewald-force                    non-local-force                 convergence-correction
 -----------------------------------------------------------------------------------------------
   -.397E+00 -.890E+00 0.988E+03   0.421E+00 0.958E+00 -.994E+03   -.118E-01 -.280E-01 0.561E+01   -.207E-02 -.973E-02 -.568E-01
   0.299E+00 0.678E+00 -.997E+03   -.311E+00 -.713E+00 0.100E+04   -.151E-02 -.352E-02 -.271E+01   0.726E-03 0.508E-02 -.414E-01
   0.890E-01 0.180E+00 -.565E+03   -.774E-01 -.152E+00 0.559E+03   -.137E-01 -.266E-01 0.653E+01   0.298E-03 -.181E-02 -.310E+00
   0.275E-01 0.790E-01 0.572E+03   -.324E-01 -.933E-01 -.565E+03   0.812E-02 0.146E-01 -.641E+01   0.721E-03 0.499E-02 -.335E+00
 -----------------------------------------------------------------------------------------------
   0.192E-01 0.472E-01 -.227E+01   0.136E-13 -.890E-14 0.000E+00   -.189E-01 -.436E-01 0.301E+01   -.328E-03 -.148E-02 -.743E+00
 
 
 POSITION                                       TOTAL-FORCE (eV/Angst)
 -----------------------------------------------------------------------------------
     -0.89229      1.58277      3.36953         0.010442      0.029249      0.021419
     -0.89451      1.57825      7.71156        -0.012615     -0.033052     -0.010674
      0.92033      0.51374      6.20831        -0.001564     -0.000567     -0.014924
      0.94853      2.61201      4.71527         0.003737      0.004370      0.004180
 -----------------------------------------------------------------------------------
    total drift:                               -0.000043      0.002189     -0.001655


--------------------------------------------------------------------------------------------------------



  FREE ENERGIE OF THE ION-ELECTRON SYSTEM (eV)
  ---------------------------------------------------
  free  energy   TOTEN  =       -17.79954647 eV

  energy  without entropy=      -17.79954647  energy(sigma->0) =      -17.79954647
 
 d Force = 0.1371182E-03[ 0.842E-04, 0.190E-03]  d Energy = 0.2725316E-03-0.135E-03
 d Force = 0.2711986E-01[ 0.272E-01, 0.270E-01]  d Ewald  = 0.8806436E+01-0.878E+01


--------------------------------------------------------------------------------------------------------


    POTLOK:  cpu time    0.2549: real time    0.2549


--------------------------------------------------------------------------------------------------------


 Quasi-Newton relaxation of ions (Broydens 2nd method)
  g(Force)  = 0.148E-03   g(Stress)= 0.497E-04

 retain information from N=  1 steps
 eigenvalues of (default step * inverse Hessian matrix)
  average eigenvalue of G=   1.0905
 eigenvalue spectrum of G is  1.0905


--------------------------------------------------------------------------------------------------------


  
 reached required accuracy - stopping structural energy minimisation
 writing wavefunctions
     LOOP+:  cpu time    5.5076: real time    5.5080
    4ORBIT:  cpu time    0.0000: real time    0.0000

 total amount of memory used by VASP MPI-rank0    87274. kBytes
=======================================================================

   base      :      30000. kBytes
   nonl-proj :      19128. kBytes
   fftplans  :       9621. kBytes
   grid      :      20579. kBytes
   one-center:         62. kBytes
   wavefun   :       7884. kBytes
 
  
  
 General timing and accounting informations for this job:
 ========================================================
  
                  Total CPU time used (sec):       30.106
                            User time (sec):       29.302
                          System time (sec):        0.804
                         Elapsed time (sec):       30.373
  
                   Maximum memory used (kb):      199108.
                   Average memory used (kb):           0.
  
                          Minor page faults:       103947
                          Major page faults:            0
                 Voluntary context switches:           58
