 running on    8 total cores
 distrk:  each k-point on    2 cores,    4 groups
 distr:  one band on    1 cores,    2 groups
 using from now: INCAR     
 vasp.5.4.4.16052018 (build Dec 07 2020 11:33:42) complex                       
  
 POSCAR found type information on POSCAR  Cl Br Pt
 POSCAR found :  3 types and       4 ions
 scaLAPACK will be used

 ----------------------------------------------------------------------------- 
|                                                                             |
|           W    W    AA    RRRRR   N    N  II  N    N   GGGG   !!!           |
|           W    W   A  A   R    R  NN   N  II  NN   N  G    G  !!!           |
|           W    W  A    A  R    R  N N  N  II  N N  N  G       !!!           |
|           W WW W  AAAAAA  RRRRR   N  N N  II  N  N N  G  GGG   !            |
|           WW  WW  A    A  R   R   N   NN  II  N   NN  G    G                |
|           W    W  A    A  R    R  N    N  II  N    N   GGGG   !!!           |
|                                                                             |
|      For optimal performance we recommend to set                            |
|        NCORE= 4 - approx SQRT( number of cores)                             |
|      NCORE specifies how many cores store one orbital (NPAR=cpu/NCORE).     |
|      This setting can  greatly improve the performance of VASP for DFT.     |
|      The default,   NCORE=1            might be grossly inefficient         |
|      on modern multi-core architectures or massively parallel machines.     |
|      Do your own testing !!!!                                               |
|      Unfortunately you need to use the default for GW and RPA calculations. |
|      (for HF NCORE is supported but not extensively tested yet)             |
|                                                                             |
 ----------------------------------------------------------------------------- 


 ----------------------------------------------------------------------------- 
|                                                                             |
|           W    W    AA    RRRRR   N    N  II  N    N   GGGG   !!!           |
|           W    W   A  A   R    R  NN   N  II  NN   N  G    G  !!!           |
|           W    W  A    A  R    R  N N  N  II  N N  N  G       !!!           |
|           W WW W  AAAAAA  RRRRR   N  N N  II  N  N N  G  GGG   !            |
|           WW  WW  A    A  R   R   N   NN  II  N   NN  G    G                |
|           W    W  A    A  R    R  N    N  II  N    N   GGGG   !!!           |
|                                                                             |
|      You have enabled k-point parallelism (KPAR>1).                         |
|      This developmental code was originally  written by Paul Kent at ORNL,  |
|      and carefully double checked in Vienna.                                |
|      GW as well as linear response parallelism added by Martijn Marsman     |
|      and Georg Kresse.                                                      |
|      Carefully verify results versus KPAR=1.                                |
|      Report problems to Paul Kent and Vienna.                               |
|                                                                             |
 ----------------------------------------------------------------------------- 

 LDA part: xc-table for Pade appr. of Perdew
 POSCAR, INCAR and KPOINTS ok, starting setup
 FFT: planning ...
 WAVECAR not read
 entering main loop
       N       E                     dE             d eps       ncg     rms          rms(c)
DAV:   1     0.226163584015E+03    0.22616E+03   -0.10131E+04   704   0.798E+02
DAV:   2     0.348218252371E+01   -0.22268E+03   -0.21214E+03  1026   0.206E+02
DAV:   3    -0.169760020138E+02   -0.20458E+02   -0.20113E+02   848   0.709E+01
DAV:   4    -0.174180065221E+02   -0.44200E+00   -0.44033E+00   844   0.118E+01
DAV:   5    -0.174299847772E+02   -0.11978E-01   -0.11975E-01   860   0.187E+00    0.164E+01
DAV:   6    -0.165878918959E+02    0.84209E+00   -0.22312E+00   880   0.132E+01    0.921E+00
DAV:   7    -0.165940114194E+02   -0.61195E-02   -0.58470E-01   818   0.772E+00    0.312E+00
DAV:   8    -0.166426424218E+02   -0.48631E-01   -0.44245E-01   842   0.950E+00    0.249E+00
DAV:   9    -0.165370694531E+02    0.10557E+00   -0.15150E-01   800   0.552E+00    0.418E-01
DAV:  10    -0.165363395194E+02    0.72993E-03   -0.25644E-02   758   0.995E-01    0.132E-01
DAV:  11    -0.165363040298E+02    0.35490E-04   -0.19215E-03   812   0.360E-01    0.836E-02
DAV:  12    -0.165363298693E+02   -0.25840E-04   -0.16187E-04   844   0.898E-02
   1 F= -.17784138E+02 E0= -.17784138E+02  d E =-.177841E+02
stress tensor set to zero in row and column 2
stress tensor set to zero in row and column 3
 BRION: g(F)=  0.341E-02 g(S)=  0.233E-02
 bond charge predicted
       N       E                     dE             d eps       ncg     rms          rms(c)
DAV:   1    -0.165519235893E+02   -0.15620E-01   -0.80140E-01   704   0.541E+00    0.664E-01
DAV:   2    -0.165458871016E+02    0.60365E-02   -0.33944E-02   854   0.137E+00    0.302E-01
DAV:   3    -0.165447943245E+02    0.10928E-02   -0.23901E-03   848   0.484E-01    0.197E-01
DAV:   4    -0.165447472128E+02    0.47112E-04   -0.23173E-03   794   0.659E-01    0.185E-01
DAV:   5    -0.165443666437E+02    0.38057E-03   -0.90329E-04   830   0.338E-01    0.694E-02
DAV:   6    -0.165443534380E+02    0.13206E-04   -0.12703E-04   624   0.108E-01
   2 F= -.17787203E+02 E0= -.17787203E+02  d E =-.306520E-02
stress tensor set to zero in row and column 2
stress tensor set to zero in row and column 3
 BRION: g(F)=  0.161E-02 g(S)=  0.566E-03 retain N=  1 mean eig= 0.67
 eig:   0.669
 bond charge predicted
       N       E                     dE             d eps       ncg     rms          rms(c)
DAV:   1    -0.165448787528E+02   -0.51211E-03   -0.12159E-01   704   0.207E+00    0.223E-01
DAV:   2    -0.165443023388E+02    0.57641E-03   -0.56141E-03   848   0.537E-01    0.895E-02
DAV:   3    -0.165442031185E+02    0.99220E-04   -0.34000E-04   812   0.217E-01    0.710E-02
DAV:   4    -0.165441580129E+02    0.45106E-04   -0.23152E-04   722   0.217E-01
   3 F= -.17788338E+02 E0= -.17788338E+02  d E =-.113475E-02
stress tensor set to zero in row and column 2
stress tensor set to zero in row and column 3
 BRION: g(F)=  0.923E-03 g(S)=  0.237E-03 retain N=  1 mean eig= 1.96
 eig:   1.959
 bond charge predicted
       N       E                     dE             d eps       ncg     rms          rms(c)
DAV:   1    -0.165445069681E+02   -0.30385E-03   -0.27465E-01   716   0.301E+00    0.288E-01
DAV:   2    -0.165438020348E+02    0.70493E-03   -0.11106E-02   794   0.713E-01    0.109E-01
DAV:   3    -0.165436025183E+02    0.19952E-03   -0.41388E-04   848   0.160E-01    0.695E-02
DAV:   4    -0.165436096690E+02   -0.71507E-05   -0.31012E-04   812   0.223E-01
   4 F= -.17789108E+02 E0= -.17789108E+02  d E =-.770428E-03
stress tensor set to zero in row and column 2
stress tensor set to zero in row and column 3
 BRION: g(F)=  0.579E-03 g(S)=  0.161E-03 retain N=  1 mean eig= 0.76
 eig:   0.759
 bond charge predicted
       N       E                     dE             d eps       ncg     rms          rms(c)
DAV:   1    -0.165450954429E+02   -0.14929E-02   -0.37628E-02   740   0.116E+00    0.141E-01
DAV:   2    -0.165448443282E+02    0.25111E-03   -0.14505E-03   884   0.272E-01    0.528E-02
DAV:   3    -0.165447957415E+02    0.48587E-04   -0.80068E-05   580   0.732E-02
   5 F= -.17789420E+02 E0= -.17789420E+02  d E =-.311523E-03
stress tensor set to zero in row and column 2
stress tensor set to zero in row and column 3
 BRION: g(F)=  0.313E-03 g(S)=  0.661E-03 retain N=  1 mean eig= 0.74
 eig:   0.741
 bond charge predicted
       N       E                     dE             d eps       ncg     rms          rms(c)
DAV:   1    -0.165444762116E+02    0.36812E-03   -0.24611E-02   764   0.936E-01    0.109E-01
DAV:   2    -0.165444113411E+02    0.64870E-04   -0.13589E-03   842   0.309E-01    0.573E-02
DAV:   3    -0.165443891187E+02    0.22222E-04   -0.27347E-04   692   0.240E-01
   6 F= -.17789507E+02 E0= -.17789507E+02  d E =-.870459E-04
stress tensor set to zero in row and column 2
stress tensor set to zero in row and column 3
 BRION: g(F)=  0.365E-03 g(S)=  0.255E-04 retain N=  1 mean eig= 0.34
 eig:   0.341
 reached required accuracy - stopping structural energy minimisation
 writing wavefunctions
