 vasp.5.4.4.16052018 (build Dec 07 2020 11:33:42) complex                       
  
 executed on             LinuxIFC date 2020.12.13  00:52:47
 running on    8 total cores
 distrk:  each k-point on    2 cores,    4 groups
 distr:  one band on NCORES_PER_BAND=   1 cores,    2 groups


--------------------------------------------------------------------------------------------------------


 INCAR:
 POTCAR:    PAW_PBE Cl 06Sep2000                  
 POTCAR:    PAW_PBE Br 06Sep2000                  
 POTCAR:    PAW_PBE Pt 04Feb2005                  

 ----------------------------------------------------------------------------- 
|                                                                             |
|           W    W    AA    RRRRR   N    N  II  N    N   GGGG   !!!           |
|           W    W   A  A   R    R  NN   N  II  NN   N  G    G  !!!           |
|           W    W  A    A  R    R  N N  N  II  N N  N  G       !!!           |
|           W WW W  AAAAAA  RRRRR   N  N N  II  N  N N  G  GGG   !            |
|           WW  WW  A    A  R   R   N   NN  II  N   NN  G    G                |
|           W    W  A    A  R    R  N    N  II  N    N   GGGG   !!!           |
|                                                                             |
|      For optimal performance we recommend to set                            |
|        NCORE= 4 - approx SQRT( number of cores)                             |
|      NCORE specifies how many cores store one orbital (NPAR=cpu/NCORE).     |
|      This setting can  greatly improve the performance of VASP for DFT.     |
|      The default,   NCORE=1            might be grossly inefficient         |
|      on modern multi-core architectures or massively parallel machines.     |
|      Do your own testing !!!!                                               |
|      Unfortunately you need to use the default for GW and RPA calculations. |
|      (for HF NCORE is supported but not extensively tested yet)             |
|                                                                             |
 ----------------------------------------------------------------------------- 


 ----------------------------------------------------------------------------- 
|                                                                             |
|           W    W    AA    RRRRR   N    N  II  N    N   GGGG   !!!           |
|           W    W   A  A   R    R  NN   N  II  NN   N  G    G  !!!           |
|           W    W  A    A  R    R  N N  N  II  N N  N  G       !!!           |
|           W WW W  AAAAAA  RRRRR   N  N N  II  N  N N  G  GGG   !            |
|           WW  WW  A    A  R   R   N   NN  II  N   NN  G    G                |
|           W    W  A    A  R    R  N    N  II  N    N   GGGG   !!!           |
|                                                                             |
|      You have enabled k-point parallelism (KPAR>1).                         |
|      This developmental code was originally  written by Paul Kent at ORNL,  |
|      and carefully double checked in Vienna.                                |
|      GW as well as linear response parallelism added by Martijn Marsman     |
|      and Georg Kresse.                                                      |
|      Carefully verify results versus KPAR=1.                                |
|      Report problems to Paul Kent and Vienna.                               |
|                                                                             |
 ----------------------------------------------------------------------------- 

 POTCAR:    PAW_PBE Cl 06Sep2000                  
   VRHFIN =Cl: s2p5                                                             
   LEXCH  = PE                                                                  
   EATOM  =   409.7259 eV,   30.1140 Ry                                         
                                                                                
   TITEL  = PAW_PBE Cl 06Sep2000                                                
   LULTRA =        F    use ultrasoft PP ?                                      
   IUNSCR =        1    unscreen: 0-lin 1-nonlin 2-no                           
   RPACOR =    1.500    partial core radius                                     
   POMASS =   35.453; ZVAL   =    7.000    mass and valenz                      
   RCORE  =    1.900    outmost cutoff radius                                   
   RWIGS  =    2.100; RWIGS  =    1.111    wigner-seitz radius (au A)           
   ENMAX  =  262.472; ENMIN  =  196.854 eV                                      
   ICORE  =        2    local potential                                         
   LCOR   =        T    correct aug charges                                     
   LPAW   =        T    paw PP                                                  
   EAUG   =  356.192                                                            
   DEXC   =    0.000                                                            
   RMAX   =    1.945    core radius for proj-oper                               
   RAUG   =    1.300    factor for augmentation sphere                          
   RDEP   =    2.020    radius for radial grids                                 
   RDEPT  =    1.678    core radius for aug-charge                              
                                                                                
   Atomic configuration                                                         
    6 entries                                                                   
     n  l   j            E        occ.                                          
     1  0  0.50     -2751.1850   2.0000                                         
     2  0  0.50      -252.6861   2.0000                                         
     2  1  1.50      -191.6157   6.0000                                         
     3  0  0.50       -20.6916   2.0000                                         
     3  1  0.50        -8.5949   5.0000                                         
     3  2  1.50        -8.1635   0.0000                                         
   Description                                                                  
     l       E           TYP  RCUT    TYP  RCUT                                 
     0    -20.6915656     23  1.900                                             
     0    -22.0521482     23  1.900                                             
     1     -8.5948577     23  1.900                                             
     1     -5.3847331     23  1.900                                             
     2     -8.1634956     23  1.900                                             
  local pseudopotential read in
  partial core-charges read in
  partial kinetic energy density read in
  atomic valenz-charges read in
  non local Contribution for L=           0  read in
    real space projection operators read in
  non local Contribution for L=           0  read in
    real space projection operators read in
  non local Contribution for L=           1  read in
    real space projection operators read in
  non local Contribution for L=           1  read in
    real space projection operators read in
    PAW grid and wavefunctions read in
 
   number of l-projection  operators is LMAX  =           4
   number of lm-projection operators is LMMAX =           8
 
 POTCAR:    PAW_PBE Br 06Sep2000                  
   VRHFIN =Br: s2p5                                                             
   LEXCH  = PE                                                                  
   EATOM  =   368.4488 eV,   27.0802 Ry                                         
                                                                                
   TITEL  = PAW_PBE Br 06Sep2000                                                
   LULTRA =        F    use ultrasoft PP ?                                      
   IUNSCR =        1    unscreen: 0-lin 1-nonlin 2-no                           
   RPACOR =    1.900    partial core radius                                     
   POMASS =   79.904; ZVAL   =    7.000    mass and valenz                      
   RCORE  =    2.100    outmost cutoff radius                                   
   RWIGS  =    2.200; RWIGS  =    1.164    wigner-seitz radius (au A)           
   ENMAX  =  216.285; ENMIN  =  162.214 eV                                      
   ICORE  =        3    local potential                                         
   LCOR   =        T    correct aug charges                                     
   LPAW   =        T    paw PP                                                  
   EAUG   =  503.852                                                            
   DEXC   =    0.000                                                            
   RMAX   =    2.139    core radius for proj-oper                               
   RAUG   =    1.300    factor for augmentation sphere                          
   RDEP   =    2.186    radius for radial grids                                 
   RDEPT  =    1.890    core radius for aug-charge                              
                                                                                
   Atomic configuration                                                         
   10 entries                                                                   
     n  l   j            E        occ.                                          
     1  0  0.50    -13316.2796   2.0000                                         
     2  0  0.50     -1732.8239   2.0000                                         
     2  1  1.50     -1528.2193   6.0000                                         
     3  0  0.50      -238.0460   2.0000                                         
     3  1  1.50      -173.4609   6.0000                                         
     3  2  2.50       -66.7132  10.0000                                         
     4  0  0.50       -20.1334   2.0000                                         
     4  1  0.50        -7.8591   5.0000                                         
     4  2  2.50        -8.1635   0.0000                                         
     4  3  2.50        -8.1635   0.0000                                         
   Description                                                                  
     l       E           TYP  RCUT    TYP  RCUT                                 
     0    -20.1333652     23  2.100                                             
     0    -21.4939478     23  2.100                                             
     1     -7.8591052     23  2.100                                             
     1     -3.1608434     23  2.100                                             
     2     -8.1634956     23  2.100                                             
     3     -1.3605826      7  2.100                                             
  local pseudopotential read in
  partial core-charges read in
  partial kinetic energy density read in
  atomic valenz-charges read in
  non local Contribution for L=           0  read in
    real space projection operators read in
  non local Contribution for L=           0  read in
    real space projection operators read in
  non local Contribution for L=           1  read in
    real space projection operators read in
  non local Contribution for L=           1  read in
    real space projection operators read in
  non local Contribution for L=           2  read in
    real space projection operators read in
    PAW grid and wavefunctions read in
 
   number of l-projection  operators is LMAX  =           5
   number of lm-projection operators is LMMAX =          13
 
 POTCAR:    PAW_PBE Pt 04Feb2005                  
   VRHFIN =Pt: s1d9                                                             
   LEXCH  = PE                                                                  
   EATOM  =   729.1176 eV,   53.5886 Ry                                         
                                                                                
   TITEL  = PAW_PBE Pt 04Feb2005                                                
   LULTRA =        F    use ultrasoft PP ?                                      
   IUNSCR =        1    unscreen: 0-lin 1-nonlin 2-no                           
   RPACOR =    2.330    partial core radius                                     
   POMASS =  195.080; ZVAL   =   10.000    mass and valenz                      
   RCORE  =    2.600    outmost cutoff radius                                   
   RWIGS  =    2.750; RWIGS  =    1.455    wigner-seitz radius (au A)           
   ENMAX  =  230.283; ENMIN  =  172.712 eV                                      
   ICORE  =        3    local potential                                         
   LCOR   =        T    correct aug charges                                     
   LPAW   =        T    paw PP                                                  
   EAUG   =  358.966                                                            
   DEXC   =    0.000                                                            
   RMAX   =    2.658    core radius for proj-oper                               
   RAUG   =    1.300    factor for augmentation sphere                          
   RDEP   =    2.761    radius for radial grids                                 
   RDEPT  =    2.203    core radius for aug-charge                              
                                                                                
   Atomic configuration                                                         
   16 entries                                                                   
     n  l   j            E        occ.                                          
     1  0  0.50    -78401.1885   2.0000                                         
     2  0  0.50    -13770.7750   2.0000                                         
     2  1  1.50    -11931.0468   6.0000                                         
     3  0  0.50     -3234.7234   2.0000                                         
     3  1  1.50     -2699.2216   6.0000                                         
     3  2  2.50     -2119.5714  10.0000                                         
     4  0  0.50      -695.1528   2.0000                                         
     4  1  1.50      -519.6034   6.0000                                         
     4  2  2.50      -306.6786  10.0000                                         
     4  3  3.50       -70.1041  14.0000                                         
     5  0  0.50      -101.7747   2.0000                                         
     5  1  1.50       -55.9873   6.0000                                         
     5  2  2.50        -6.1423   9.0000                                         
     6  0  0.50        -5.6573   1.0000                                         
     6  1  1.50        -6.8029   0.0000                                         
     5  3  2.50        -1.3606   0.0000                                         
   Description                                                                  
     l       E           TYP  RCUT    TYP  RCUT                                 
     2     -6.1423404     23  2.500                                             
     2     -7.5029230     23  2.500                                             
     0     -5.6573207     23  2.500                                             
     0      0.7416693     23  2.500                                             
     1     -2.7211652     23  2.600                                             
     1     20.4087390     23  2.600                                             
     3     -1.3605826     23  2.500                                             
  local pseudopotential read in
  partial core-charges read in
  partial kinetic energy density read in
  atomic valenz-charges read in
  non local Contribution for L=           2  read in
    real space projection operators read in
  non local Contribution for L=           2  read in
    real space projection operators read in
  non local Contribution for L=           0  read in
    real space projection operators read in
  non local Contribution for L=           0  read in
    real space projection operators read in
  non local Contribution for L=           1  read in
    real space projection operators read in
  non local Contribution for L=           1  read in
    real space projection operators read in
    PAW grid and wavefunctions read in
 
   number of l-projection  operators is LMAX  =           6
   number of lm-projection operators is LMMAX =          18
 
  PAW_PBE Cl 06Sep2000                  :
 energy of atom  1       EATOM= -409.7259
 kinetic energy error for atom=    0.0150 (will be added to EATOM!!)
  PAW_PBE Br 06Sep2000                  :
 energy of atom  2       EATOM= -368.4488
 kinetic energy error for atom=    0.0072 (will be added to EATOM!!)
  PAW_PBE Pt 04Feb2005                  :
 energy of atom  3       EATOM= -729.1176
 kinetic energy error for atom=    0.0416 (will be added to EATOM!!)
 
 
 POSCAR: ClBrPt2                                 
  positions in direct lattice
  velocities in cartesian coordinates
 exchange correlation table for  LEXCH =        8
   RHO(1)=    0.500       N(1)  =     2000
   RHO(2)=  100.500       N(2)  =     4000
 


--------------------------------------------------------------------------------------------------------


 ion  position               nearest neighbor table
   1  0.000  0.500  0.168-   4 2.47   4 2.49   4 2.49
   2  0.000  0.500  0.386-   3 2.56   3 2.58   3 2.58
   3  0.333  0.167  0.310-   4 2.55   2 2.56   4 2.57   4 2.57   2 2.58   2 2.58
   4  0.667  0.833  0.236-   1 2.47   1 2.49   1 2.49   3 2.55   3 2.57   3 2.57
 

IMPORTANT INFORMATION: All symmetrisations will be switched off!
NOSYMM: (Re-)initialisation of all symmetry stuff for point group C_1.

 
 
 KPOINTS: Automatic mesh                          

Automatic generation of k-mesh.
Space group operators:
 irot       det(A)        alpha          n_x          n_y          n_z        tau_x        tau_y        tau_z
    1     1.000000     0.000000     1.000000     0.000000     0.000000     0.000000     0.000000     0.000000
 
 Subroutine IBZKPT returns following result:
 ===========================================
 
 Found     16 irreducible k-points:
 
 Following reciprocal coordinates:
            Coordinates               Weight
  0.000000  0.000000  0.000000      1.000000
  0.250000  0.000000  0.000000      1.000000
  0.500000  0.000000  0.000000      1.000000
 -0.250000 -0.000000  0.000000      1.000000
  0.000000  0.250000  0.000000      1.000000
  0.250000  0.250000  0.000000      1.000000
  0.500000  0.250000  0.000000      1.000000
 -0.250000  0.250000  0.000000      1.000000
  0.000000  0.500000  0.000000      1.000000
  0.250000  0.500000  0.000000      1.000000
  0.500000  0.500000  0.000000      1.000000
 -0.250000  0.500000  0.000000      1.000000
 -0.000000 -0.250000  0.000000      1.000000
  0.250000 -0.250000  0.000000      1.000000
  0.500000 -0.250000  0.000000      1.000000
 -0.250000 -0.250000  0.000000      1.000000
 
 Following cartesian coordinates:
            Coordinates               Weight
  0.000000  0.000000  0.000000      1.000000
  0.069136  0.039591  0.000000      1.000000
  0.138271  0.079182  0.000000      1.000000
 -0.069136 -0.039591  0.000000      1.000000
  0.000807  0.080581  0.000000      1.000000
  0.069943  0.120172  0.000000      1.000000
  0.139079  0.159763  0.000000      1.000000
 -0.068328  0.040990  0.000000      1.000000
  0.001615  0.161161  0.000000      1.000000
  0.070751  0.200752  0.000000      1.000000
  0.139886  0.240343  0.000000      1.000000
 -0.067521  0.121570  0.000000      1.000000
 -0.000807 -0.080581  0.000000      1.000000
  0.068328 -0.040990  0.000000      1.000000
  0.137464 -0.001399  0.000000      1.000000
 -0.069943 -0.120172  0.000000      1.000000
 


--------------------------------------------------------------------------------------------------------




 Dimension of arrays:
   k-points           NKPTS =     16   k-points in BZ     NKDIM =     16   number of bands    NBANDS=     22
   number of dos      NEDOS =    301   number of ions     NIONS =      4
   non local maximal  LDIM  =      6   non local SUM 2l+1 LMDIM =     18
   total plane-waves  NPLWV =  57600
   max r-space proj   IRMAX =      1   max aug-charges    IRDMAX=  15657
   dimension x,y,z NGX =    24 NGY =   20 NGZ =  120
   dimension x,y,z NGXF=    48 NGYF=   40 NGZF=  240
   support grid    NGXF=    48 NGYF=   40 NGZF=  240
   ions per type =               1   1   2
   NGX,Y,Z   is equivalent  to a cutoff of  10.97,  9.25,  9.97 a.u.
   NGXF,Y,Z  is equivalent  to a cutoff of  21.94, 18.49, 19.95 a.u.

 SYSTEM =  unknown system                          
 POSCAR =  ClBrPt2                                 

 Startparameter for this run:
   NWRITE =      2    write-flag & timer
   PREC   = accura    normal or accurate (medium, high low for compatibility)
   ISTART =      0    job   : 0-new  1-cont  2-samecut
   ICHARG =      2    charge: 1-file 2-atom 10-const
   ISPIN  =      1    spin polarized calculation?
   LNONCOLLINEAR =      F non collinear calculations
   LSORBIT =      F    spin-orbit coupling
   INIWAV =      1    electr: 0-lowe 1-rand  2-diag
   LASPH  =      F    aspherical Exc in radial PAW
   METAGGA=      F    non-selfconsistent MetaGGA calc.

 Electronic Relaxation 1
   ENCUT  =  300.0 eV  22.05 Ry    4.70 a.u.   5.14  5.08 28.25*2*pi/ulx,y,z
   ENINI  =  300.0     initial cutoff
   ENAUG  =  503.9 eV  augmentation charge cutoff
   NELM   =     60;   NELMIN=  2; NELMDL= -5     # of ELM steps 
   EDIFF  = 0.5E-04   stopping-criterion for ELM
   LREAL  =      F    real-space projection
   NLSPLINE    = F    spline interpolate recip. space projectors
   LCOMPAT=      F    compatible to vasp.4.4
   GGA_COMPAT  = T    GGA compatible to vasp.4.4-vasp.4.6
   LMAXPAW     = -100 max onsite density
   LMAXMIX     =    2 max onsite mixed and CHGCAR
   VOSKOWN=      0    Vosko Wilk Nusair interpolation
   ROPT   =    0.00000   0.00000   0.00000
 Ionic relaxation
   EDIFFG = 0.5E-03   stopping-criterion for IOM
   NSW    =    100    number of steps for IOM
   NBLOCK =      1;   KBLOCK =    100    inner block; outer block 
   IBRION =      1    ionic relax: 0-MD 1-quasi-New 2-CG
   NFREE  =      0    steps in history (QN), initial steepest desc. (CG)
   ISIF   =      3    stress and relaxation
   IWAVPR =     11    prediction:  0-non 1-charg 2-wave 3-comb
   ISYM   =     -1    0-nonsym 1-usesym 2-fastsym
   LCORR  =      T    Harris-Foulkes like correction to forces

   POTIM  = 0.5000    time-step for ionic-motion
   TEIN   =    0.0    initial temperature
   TEBEG  =    0.0;   TEEND  =   0.0 temperature during run
   SMASS  =  -3.00    Nose mass-parameter (am)
   estimated Nose-frequenzy (Omega)   =  0.10E-29 period in steps =****** mass=  -0.302E-27a.u.
   SCALEE = 1.0000    scale energy and forces
   NPACO  =    256;   APACO  = 16.0  distance and # of slots for P.C.
   PSTRESS=    0.0 pullay stress

  Mass of Ions in am
   POMASS =  35.45 79.90195.08
  Ionic Valenz
   ZVAL   =   7.00  7.00 10.00
  Atomic Wigner-Seitz radii
   RWIGS  =  -1.00 -1.00 -1.00
  virtual crystal weights 
   VCA    =   1.00  1.00  1.00
   NELECT =      34.0000    total number of electrons
   NUPDOWN=      -1.0000    fix difference up-down

 DOS related values:
   EMIN   =  10.00;   EMAX   =-10.00  energy-range for DOS
   EFERMI =   0.00
   ISMEAR =     0;   SIGMA  =   0.10  broadening in eV -4-tet -1-fermi 0-gaus

 Electronic relaxation 2 (details)
   IALGO  =     38    algorithm
   LDIAG  =      T    sub-space diagonalisation (order eigenvalues)
   LSUBROT=      F    optimize rotation matrix (better conditioning)
   TURBO    =      0    0=normal 1=particle mesh
   IRESTART =      0    0=no restart 2=restart with 2 vectors
   NREBOOT  =      0    no. of reboots
   NMIN     =      0    reboot dimension
   EREF     =   0.00    reference energy to select bands
   IMIX   =      4    mixing-type and parameters
     AMIX     =   0.40;   BMIX     =  1.00
     AMIX_MAG =   1.60;   BMIX_MAG =  1.00
     AMIN     =   0.10
     WC   =   100.;   INIMIX=   1;  MIXPRE=   1;  MAXMIX= -45

 Intra band minimization:
   WEIMIN = 0.0010     energy-eigenvalue tresh-hold
   EBREAK =  0.57E-06  absolut break condition
   DEPER  =   0.30     relativ break condition  

   TIME   =   0.40     timestep for ELM

  volume/ion in A,a.u.               =      56.42       380.73
  Fermi-wavevector in a.u.,A,eV,Ry     =   0.871116  1.646170 10.324681  0.758843
  Thomas-Fermi vector in A             =   1.990178
 
 Write flags
   LWAVE        =      T    write WAVECAR
   LDOWNSAMPLE  =      F    k-point downsampling of WAVECAR
   LCHARG       =      T    write CHGCAR
   LVTOT        =      F    write LOCPOT, total local potential
   LVHAR        =      F    write LOCPOT, Hartree potential only
   LELF         =      F    write electronic localiz. function (ELF)
   LORBIT       =      0    0 simple, 1 ext, 2 COOP (PROOUT), +10 PAW based schemes


 Dipole corrections
   LMONO  =      F    monopole corrections only (constant potential shift)
   LDIPOL =      T    correct potential (dipole corrections)
   IDIPOL =      3    1-x, 2-y, 3-z, 4-all directions 
   EPSILON=  1.0000000 bulk dielectric constant

 Exchange correlation treatment:
   GGA     =    --    GGA type
   LEXCH   =     8    internal setting for exchange type
   VOSKOWN=      0    Vosko Wilk Nusair interpolation
   LHFCALC =     F    Hartree Fock is set to
   LHFONE  =     F    Hartree Fock one center treatment
   AEXX    =    0.0000 exact exchange contribution

 Linear response parameters
   LEPSILON=     F    determine dielectric tensor
   LRPA    =     F    only Hartree local field effects (RPA)
   LNABLA  =     F    use nabla operator in PAW spheres
   LVEL    =     F    velocity operator in full k-point grid
   LINTERFAST=   F  fast interpolation
   KINTER  =     0    interpolate to denser k-point grid
   CSHIFT  =0.1000    complex shift for real part using Kramers Kronig
   OMEGAMAX=  -1.0    maximum frequency
   DEG_THRESHOLD= 0.2000000E-02 threshold for treating states as degnerate
   RTIME   =   -0.100 relaxation time in fs
  (WPLASMAI=    0.000 imaginary part of plasma frequency in eV, 0.658/RTIME)
   DFIELD  = 0.0000000 0.0000000 0.0000000 field for delta impulse in time
 
 Orbital magnetization related:
   ORBITALMAG=     F  switch on orbital magnetization
   LCHIMAG   =     F  perturbation theory with respect to B field
   DQ        =  0.001000  dq finite difference perturbation B field
   LLRAUG    =     F  two centre corrections for induced B field



--------------------------------------------------------------------------------------------------------


 quasi-Newton-method for relaxation of ions
 charge density and potential will be updated during run
 non-spin polarized calculation
 Variant of blocked Davidson
 Davidson routine will perform the subspace rotation
 perform sub-space diagonalisation
    after iterative eigenvector-optimisation
 modified Broyden-mixing scheme, WC =      100.0
 initial mixing is a Kerker type mixing with AMIX =  0.4000 and BMIX =      1.0000
 Hartree-type preconditioning will be used
 using additional bands            5
 reciprocal scheme for non local part
 use partial core corrections
 calculate Harris-corrections to forces 
   (improved forces if not selfconsistent)
 use gradient corrections 
 use of overlap-Matrix (Vanderbilt PP)
 Gauss-broadening in eV      SIGMA  =   0.10


--------------------------------------------------------------------------------------------------------


  energy-cutoff  :      300.00
  volume of cell :      225.67
      direct lattice vectors                 reciprocal lattice vectors
     3.636944978 -0.036443352  0.000000000     0.276542904  0.158364267  0.000000000
    -1.786911496  3.120386333  0.000000000     0.003229776  0.322322693  0.000000000
     0.000000000  0.000000000 20.000000000     0.000000000  0.000000000  0.050000000

  length of vectors
     3.637127560  3.595811948 20.000000000     0.318677295  0.322338874  0.050000000


 
 k-points in units of 2pi/SCALE and weight: Automatic mesh                          
   0.00000000  0.00000000  0.00000000       0.062
   0.06913573  0.03959107  0.00000000       0.062
   0.13827145  0.07918213  0.00000000       0.062
  -0.06913573 -0.03959107  0.00000000       0.062
   0.00080744  0.08058067  0.00000000       0.062
   0.06994317  0.12017174  0.00000000       0.062
   0.13907890  0.15976281  0.00000000       0.062
  -0.06832828  0.04098961  0.00000000       0.062
   0.00161489  0.16116135  0.00000000       0.062
   0.07075061  0.20075241  0.00000000       0.062
   0.13988634  0.24034348  0.00000000       0.062
  -0.06752084  0.12157028  0.00000000       0.062
  -0.00080744 -0.08058067  0.00000000       0.062
   0.06832828 -0.04098961  0.00000000       0.062
   0.13746401 -0.00139854  0.00000000       0.062
  -0.06994317 -0.12017174  0.00000000       0.062
 
 k-points in reciprocal lattice and weights: Automatic mesh                          
   0.00000000  0.00000000  0.00000000       0.062
   0.25000000  0.00000000  0.00000000       0.062
   0.50000000  0.00000000  0.00000000       0.062
  -0.25000000 -0.00000000  0.00000000       0.062
   0.00000000  0.25000000  0.00000000       0.062
   0.25000000  0.25000000  0.00000000       0.062
   0.50000000  0.25000000  0.00000000       0.062
  -0.25000000  0.25000000  0.00000000       0.062
   0.00000000  0.50000000  0.00000000       0.062
   0.25000000  0.50000000  0.00000000       0.062
   0.50000000  0.50000000  0.00000000       0.062
  -0.25000000  0.50000000  0.00000000       0.062
  -0.00000000 -0.25000000  0.00000000       0.062
   0.25000000 -0.25000000  0.00000000       0.062
   0.50000000 -0.25000000  0.00000000       0.062
  -0.25000000 -0.25000000  0.00000000       0.062
 
 position of ions in fractional coordinates (direct lattice) 
   0.00003284  0.49996180  0.16834626
   0.00003221  0.49995994  0.38572384
   0.33336542  0.16662742  0.31048675
   0.66669892  0.83329448  0.23567645
 
 position of ions in cartesian coordinates  (Angst):
  -0.89326804  1.56007277  3.36692514
  -0.89326702  1.56006699  7.71447671
   0.91468324  0.50779297  6.20973506
   0.93572381  2.57590397  4.71352901
 


--------------------------------------------------------------------------------------------------------


 k-point  1 :   0.0000 0.0000 0.0000  plane waves:    2649
 k-point  2 :   0.2500 0.0000 0.0000  plane waves:    2653
 k-point  3 :   0.5000 0.0000 0.0000  plane waves:    2662
 k-point  4 :  -0.2500-0.0000 0.0000  plane waves:    2653
 k-point  5 :   0.0000 0.2500 0.0000  plane waves:    2655
 k-point  6 :   0.2500 0.2500 0.0000  plane waves:    2675
 k-point  7 :   0.5000 0.2500 0.0000  plane waves:    2679
 k-point  8 :  -0.2500 0.2500 0.0000  plane waves:    2651
 k-point  9 :   0.0000 0.5000 0.0000  plane waves:    2666
 k-point 10 :   0.2500 0.5000 0.0000  plane waves:    2675
 k-point 11 :   0.5000 0.5000 0.0000  plane waves:    2662
 k-point 12 :  -0.2500 0.5000 0.0000  plane waves:    2675
 k-point 13 :  -0.0000-0.2500 0.0000  plane waves:    2655
 k-point 14 :   0.2500-0.2500 0.0000  plane waves:    2651
 k-point 15 :   0.5000-0.2500 0.0000  plane waves:    2679
 k-point 16 :  -0.2500-0.2500 0.0000  plane waves:    2675

 maximum and minimum number of plane-waves per node :      2679     2649

 maximum number of plane-waves:      2679
 maximum index in each direction: 
   IXMAX=    5   IYMAX=    5   IZMAX=   28
   IXMIN=   -5   IYMIN=   -5   IZMIN=  -28


 serial   3D FFT for wavefunctions
 parallel 3D FFT for charge:
    minimum data exchange during FFTs selected (reduces bandwidth)


 total amount of memory used by VASP MPI-rank0    81633. kBytes
=======================================================================

   base      :      30000. kBytes
   nonl-proj :      18695. kBytes
   fftplans  :       8017. kBytes
   grid      :      17149. kBytes
   one-center:         62. kBytes
   wavefun   :       7710. kBytes
 
     INWAV:  cpu time    0.0000: real time    0.0000
 Broyden mixing: mesh for mixing (old mesh)
   NGX = 11   NGY = 11   NGZ = 57
  (NGX  = 48   NGY  = 40   NGZ  =240)
  gives a total of   6897 points

 initial charge density was supplied:
 charge density of overlapping atoms calculated
 number of electron      34.0000000 magnetization 
 keeping initial charge density in first step


--------------------------------------------------------------------------------------------------------


 Maximum index for augmentation-charges         7501 (set IRDMAX)


--------------------------------------------------------------------------------------------------------


 First call to EWALD:  gamma=   0.291
 Maximum number of real-space cells 5x 5x 1
 Maximum number of reciprocal cells 2x 2x 8

    FEWALD:  cpu time    0.0010: real time    0.0010


--------------------------------------- Iteration      1(   1)  ---------------------------------------


    POTLOK:  cpu time    0.2008: real time    0.2008
    SETDIJ:  cpu time    0.0057: real time    0.0057
     EDDAV:  cpu time    0.6185: real time    0.6186
       DOS:  cpu time    0.0003: real time    0.0003
    --------------------------------------------
      LOOP:  cpu time    0.8255: real time    0.8256

 eigenvalue-minimisations  :   704
 total energy-change (2. order) : 0.2261636E+03  (-0.1013095E+04)
 number of electron      34.0000000 magnetization 
 augmentation part       34.0000000 magnetization 

 DIPCOR: dipole corrections for dipol
 direction  3 min pos   183,
 dipolmoment           0.000000      0.000000     -0.000023 electrons x Angstroem
 Tr[quadrupol]       -78.120666

 energy correction for charged system         0.000000 eV
 dipol+quadrupol energy correction           -0.000000 eV
 added-field ion interaction          0.000203 eV  (added to PSCEN)


 Free energy of the ion-electron system (eV)
  ---------------------------------------------------
  alpha Z        PSCENC =        43.01150405
  Ewald energy   TEWEN  =      6067.38523595
  -Hartree energ DENC   =     -8258.16364748
  -exchange      EXHF   =         0.00000000
  -V(xc)+E(xc)   XCENC  =        37.33243281
  PAW double counting   =      2012.60260865    -1949.97488812
  entropy T*S    EENTRO =        -0.01955877
  eigenvalues    EBANDS =        37.68531976
  atomic energy  EATOM  =      2236.30457717
  Solvation  Ediel_sol  =         0.00000000
  ---------------------------------------------------
  free energy    TOTEN  =       226.16358401 eV

  energy without entropy =      226.18314278  energy(sigma->0) =      226.17336340


--------------------------------------------------------------------------------------------------------




--------------------------------------- Iteration      1(   2)  ---------------------------------------


     EDDAV:  cpu time    0.8270: real time    0.8274
       DOS:  cpu time    0.0003: real time    0.0003
    --------------------------------------------
      LOOP:  cpu time    0.8273: real time    0.8277

 eigenvalue-minimisations  :  1026
 total energy-change (2. order) :-0.2226814E+03  (-0.2121410E+03)
 number of electron      34.0000000 magnetization 
 augmentation part       34.0000000 magnetization 

 DIPCOR: dipole corrections for dipol
 direction  3 min pos   183,
 dipolmoment           0.000000      0.000000     -0.000023 electrons x Angstroem
 Tr[quadrupol]       -78.120666

 energy correction for charged system         0.000000 eV
 dipol+quadrupol energy correction           -0.000000 eV
 added-field ion interaction          0.000203 eV  (added to PSCEN)


 Free energy of the ion-electron system (eV)
  ---------------------------------------------------
  alpha Z        PSCENC =        43.01150405
  Ewald energy   TEWEN  =      6067.38523595
  -Hartree energ DENC   =     -8258.16364748
  -exchange      EXHF   =         0.00000000
  -V(xc)+E(xc)   XCENC  =        37.33243281
  PAW double counting   =      2012.60260865    -1949.97488812
  entropy T*S    EENTRO =        -0.00000092
  eigenvalues    EBANDS =      -185.01563958
  atomic energy  EATOM  =      2236.30457717
  Solvation  Ediel_sol  =         0.00000000
  ---------------------------------------------------
  free energy    TOTEN  =         3.48218252 eV

  energy without entropy =        3.48218344  energy(sigma->0) =        3.48218298


--------------------------------------------------------------------------------------------------------




--------------------------------------- Iteration      1(   3)  ---------------------------------------


     EDDAV:  cpu time    0.7166: real time    0.7167
       DOS:  cpu time    0.0002: real time    0.0002
    --------------------------------------------
      LOOP:  cpu time    0.7169: real time    0.7169

 eigenvalue-minimisations  :   848
 total energy-change (2. order) :-0.2045818E+02  (-0.2011278E+02)
 number of electron      34.0000000 magnetization 
 augmentation part       34.0000000 magnetization 

 DIPCOR: dipole corrections for dipol
 direction  3 min pos   183,
 dipolmoment           0.000000      0.000000     -0.000023 electrons x Angstroem
 Tr[quadrupol]       -78.120666

 energy correction for charged system         0.000000 eV
 dipol+quadrupol energy correction           -0.000000 eV
 added-field ion interaction          0.000203 eV  (added to PSCEN)


 Free energy of the ion-electron system (eV)
  ---------------------------------------------------
  alpha Z        PSCENC =        43.01150405
  Ewald energy   TEWEN  =      6067.38523595
  -Hartree energ DENC   =     -8258.16364748
  -exchange      EXHF   =         0.00000000
  -V(xc)+E(xc)   XCENC  =        37.33243281
  PAW double counting   =      2012.60260865    -1949.97488812
  entropy T*S    EENTRO =        -0.00000000
  eigenvalues    EBANDS =      -205.47382504
  atomic energy  EATOM  =      2236.30457717
  Solvation  Ediel_sol  =         0.00000000
  ---------------------------------------------------
  free energy    TOTEN  =       -16.97600201 eV

  energy without entropy =      -16.97600201  energy(sigma->0) =      -16.97600201


--------------------------------------------------------------------------------------------------------




--------------------------------------- Iteration      1(   4)  ---------------------------------------


     EDDAV:  cpu time    0.7112: real time    0.7113
       DOS:  cpu time    0.0002: real time    0.0002
    --------------------------------------------
      LOOP:  cpu time    0.7114: real time    0.7115

 eigenvalue-minimisations  :   844
 total energy-change (2. order) :-0.4420045E+00  (-0.4403316E+00)
 number of electron      34.0000000 magnetization 
 augmentation part       34.0000000 magnetization 

 DIPCOR: dipole corrections for dipol
 direction  3 min pos   183,
 dipolmoment           0.000000      0.000000     -0.000023 electrons x Angstroem
 Tr[quadrupol]       -78.120666

 energy correction for charged system         0.000000 eV
 dipol+quadrupol energy correction           -0.000000 eV
 added-field ion interaction          0.000203 eV  (added to PSCEN)


 Free energy of the ion-electron system (eV)
  ---------------------------------------------------
  alpha Z        PSCENC =        43.01150405
  Ewald energy   TEWEN  =      6067.38523595
  -Hartree energ DENC   =     -8258.16364748
  -exchange      EXHF   =         0.00000000
  -V(xc)+E(xc)   XCENC  =        37.33243281
  PAW double counting   =      2012.60260865    -1949.97488812
  entropy T*S    EENTRO =        -0.00000000
  eigenvalues    EBANDS =      -205.91582954
  atomic energy  EATOM  =      2236.30457717
  Solvation  Ediel_sol  =         0.00000000
  ---------------------------------------------------
  free energy    TOTEN  =       -17.41800652 eV

  energy without entropy =      -17.41800652  energy(sigma->0) =      -17.41800652


--------------------------------------------------------------------------------------------------------




--------------------------------------- Iteration      1(   5)  ---------------------------------------


     EDDAV:  cpu time    0.7030: real time    0.7031
       DOS:  cpu time    0.0002: real time    0.0002
    CHARGE:  cpu time    0.0743: real time    0.0743
    MIXING:  cpu time    0.0065: real time    0.0065
    --------------------------------------------
      LOOP:  cpu time    0.7841: real time    0.7841

 eigenvalue-minimisations  :   860
 total energy-change (2. order) :-0.1197826E-01  (-0.1197484E-01)
 number of electron      33.9999998 magnetization 
 augmentation part        3.4315686 magnetization 

 DIPCOR: dipole corrections for dipol
 direction  3 min pos   183,
 dipolmoment           0.000000      0.000000     -0.000023 electrons x Angstroem
 Tr[quadrupol]       -78.120666

 energy correction for charged system         0.000000 eV
 dipol+quadrupol energy correction           -0.000000 eV
 added-field ion interaction          0.000203 eV  (added to PSCEN)


 Broyden mixing:
  rms(total) = 0.16398E+01    rms(broyden)= 0.16396E+01
  rms(prec ) = 0.16624E+01
  weight for this iteration     100.00

 Free energy of the ion-electron system (eV)
  ---------------------------------------------------
  alpha Z        PSCENC =        43.01150405
  Ewald energy   TEWEN  =      6067.38523595
  -Hartree energ DENC   =     -8258.16364748
  -exchange      EXHF   =         0.00000000
  -V(xc)+E(xc)   XCENC  =        37.33243281
  PAW double counting   =      2012.60260865    -1949.97488812
  entropy T*S    EENTRO =        -0.00000000
  eigenvalues    EBANDS =      -205.92780780
  atomic energy  EATOM  =      2236.30457717
  Solvation  Ediel_sol  =         0.00000000
  ---------------------------------------------------
  free energy    TOTEN  =       -17.42998478 eV

  energy without entropy =      -17.42998478  energy(sigma->0) =      -17.42998478


--------------------------------------------------------------------------------------------------------




--------------------------------------- Iteration      1(   6)  ---------------------------------------


    POTLOK:  cpu time    0.1970: real time    0.1971
    SETDIJ:  cpu time    0.0065: real time    0.0065
     EDDAV:  cpu time    0.7077: real time    0.7078
       DOS:  cpu time    0.0002: real time    0.0002
    CHARGE:  cpu time    0.0733: real time    0.0733
    MIXING:  cpu time    0.0069: real time    0.0069
    --------------------------------------------
      LOOP:  cpu time    0.9917: real time    0.9919

 eigenvalue-minimisations  :   880
 total energy-change (2. order) : 0.8420929E+00  (-0.2231192E+00)
 number of electron      33.9999998 magnetization 
 augmentation part        3.8401670 magnetization 

 DIPCOR: dipole corrections for dipol
 direction  3 min pos   185,
 dipolmoment           0.000000      0.000000     -0.033954 electrons x Angstroem
 Tr[quadrupol]       -78.071662

 energy correction for charged system         0.000000 eV
 dipol+quadrupol energy correction           -0.000462 eV
 added-field ion interaction          0.148903 eV  (added to PSCEN)


 Broyden mixing:
  rms(total) = 0.92137E+00    rms(broyden)= 0.92135E+00
  rms(prec ) = 0.92584E+00
  weight for this iteration     100.00

 eigenvalues of (default mixing * dielectric matrix)
  average eigenvalue GAMMA=   1.9029
  1.9029

 Free energy of the ion-electron system (eV)
  ---------------------------------------------------
  alpha Z        PSCENC =        43.15974152
  Ewald energy   TEWEN  =      6067.38523595
  -Hartree energ DENC   =     -8243.17159508
  -exchange      EXHF   =         0.00000000
  -V(xc)+E(xc)   XCENC  =        37.04738233
  PAW double counting   =      2293.72252855    -2234.24123185
  entropy T*S    EENTRO =        -0.00000000
  eigenvalues    EBANDS =      -216.79453047
  atomic energy  EATOM  =      2236.30457717
  Solvation  Ediel_sol  =         0.00000000
  ---------------------------------------------------
  free energy    TOTEN  =       -16.58789190 eV

  energy without entropy =      -16.58789190  energy(sigma->0) =      -16.58789190


--------------------------------------------------------------------------------------------------------




--------------------------------------- Iteration      1(   7)  ---------------------------------------


    POTLOK:  cpu time    0.1857: real time    0.1964
    SETDIJ:  cpu time    0.0071: real time    0.0071
     EDDAV:  cpu time    0.6721: real time    0.6722
       DOS:  cpu time    0.0002: real time    0.0002
    CHARGE:  cpu time    0.0723: real time    0.0723
    MIXING:  cpu time    0.0067: real time    0.0067
    --------------------------------------------
      LOOP:  cpu time    0.9441: real time    0.9549

 eigenvalue-minimisations  :   818
 total energy-change (2. order) :-0.6119523E-02  (-0.5846967E-01)
 number of electron      33.9999998 magnetization 
 augmentation part        3.8161968 magnetization 

 DIPCOR: dipole corrections for dipol
 direction  3 min pos   179,
 dipolmoment           0.000000      0.000000     -0.003544 electrons x Angstroem
 Tr[quadrupol]       -78.317975

 energy correction for charged system         0.000000 eV
 dipol+quadrupol energy correction           -0.000005 eV
 added-field ion interaction          0.063850 eV  (added to PSCEN)


 Broyden mixing:
  rms(total) = 0.31224E+00    rms(broyden)= 0.31222E+00
  rms(prec ) = 0.33439E+00
  weight for this iteration     100.00

 eigenvalues of (default mixing * dielectric matrix)
  average eigenvalue GAMMA=   1.5704
  0.8283  2.3124

 Free energy of the ion-electron system (eV)
  ---------------------------------------------------
  alpha Z        PSCENC =        43.07514583
  Ewald energy   TEWEN  =      6067.38523595
  -Hartree energ DENC   =     -8247.91056272
  -exchange      EXHF   =         0.00000000
  -V(xc)+E(xc)   XCENC  =        36.96029359
  PAW double counting   =      2639.61595705    -2582.41645747
  entropy T*S    EENTRO =        -0.00000000
  eigenvalues    EBANDS =      -209.60820082
  atomic energy  EATOM  =      2236.30457717
  Solvation  Ediel_sol  =         0.00000000
  ---------------------------------------------------
  free energy    TOTEN  =       -16.59401142 eV

  energy without entropy =      -16.59401142  energy(sigma->0) =      -16.59401142


--------------------------------------------------------------------------------------------------------




--------------------------------------- Iteration      1(   8)  ---------------------------------------


    POTLOK:  cpu time    0.1964: real time    0.1964
    SETDIJ:  cpu time    0.0104: real time    0.0104
     EDDAV:  cpu time    0.6867: real time    0.6867
       DOS:  cpu time    0.0002: real time    0.0002
    CHARGE:  cpu time    0.0728: real time    0.0728
    MIXING:  cpu time    0.0068: real time    0.0068
    --------------------------------------------
      LOOP:  cpu time    0.9732: real time    0.9734

 eigenvalue-minimisations  :   842
 total energy-change (2. order) :-0.4863100E-01  (-0.4424459E-01)
 number of electron      33.9999998 magnetization 
 augmentation part        3.8207564 magnetization 

 DIPCOR: dipole corrections for dipol
 direction  3 min pos   187,
 dipolmoment           0.000000      0.000000     -0.071238 electrons x Angstroem
 Tr[quadrupol]       -78.322041

 energy correction for charged system         0.000000 eV
 dipol+quadrupol energy correction           -0.002035 eV
 added-field ion interaction         -0.011284 eV  (added to PSCEN)


 Broyden mixing:
  rms(total) = 0.24852E+00    rms(broyden)= 0.24847E+00
  rms(prec ) = 0.30143E+00
  weight for this iteration     100.00

 eigenvalues of (default mixing * dielectric matrix)
  average eigenvalue GAMMA=   1.2678
  2.4390  0.9560  0.4082

 Free energy of the ion-electron system (eV)
  ---------------------------------------------------
  alpha Z        PSCENC =        42.99798234
  Ewald energy   TEWEN  =      6067.38523595
  -Hartree energ DENC   =     -8247.30319281
  -exchange      EXHF   =         0.00000000
  -V(xc)+E(xc)   XCENC  =        36.97917331
  PAW double counting   =      2752.87692548    -2696.31587307
  entropy T*S    EENTRO =        -0.00000000
  eigenvalues    EBANDS =      -209.56747079
  atomic energy  EATOM  =      2236.30457717
  Solvation  Ediel_sol  =         0.00000000
  ---------------------------------------------------
  free energy    TOTEN  =       -16.64264242 eV

  energy without entropy =      -16.64264242  energy(sigma->0) =      -16.64264242


--------------------------------------------------------------------------------------------------------




--------------------------------------- Iteration      1(   9)  ---------------------------------------


    POTLOK:  cpu time    0.1992: real time    0.1992
    SETDIJ:  cpu time    0.0124: real time    0.0124
     EDDAV:  cpu time    0.6586: real time    0.6586
       DOS:  cpu time    0.0002: real time    0.0002
    CHARGE:  cpu time    0.0735: real time    0.0735
    MIXING:  cpu time    0.0068: real time    0.0068
    --------------------------------------------
      LOOP:  cpu time    0.9507: real time    0.9508

 eigenvalue-minimisations  :   800
 total energy-change (2. order) : 0.1055730E+00  (-0.1515033E-01)
 number of electron      33.9999998 magnetization 
 augmentation part        3.8474418 magnetization 

 DIPCOR: dipole corrections for dipol
 direction  3 min pos   194,
 dipolmoment           0.000000      0.000000     -0.033398 electrons x Angstroem
 Tr[quadrupol]       -78.269079

 energy correction for charged system         0.000000 eV
 dipol+quadrupol energy correction           -0.000447 eV
 added-field ion interaction         -0.536422 eV  (added to PSCEN)


 Broyden mixing:
  rms(total) = 0.41780E-01    rms(broyden)= 0.41705E-01
  rms(prec ) = 0.43965E-01
  weight for this iteration     100.00

 eigenvalues of (default mixing * dielectric matrix)
  average eigenvalue GAMMA=   1.2983
  2.4721  1.4258  0.8976  0.3976

 Free energy of the ion-electron system (eV)
  ---------------------------------------------------
  alpha Z        PSCENC =        42.47443158
  Ewald energy   TEWEN  =      6067.38523595
  -Hartree energ DENC   =     -8246.31063830
  -exchange      EXHF   =         0.00000000
  -V(xc)+E(xc)   XCENC  =        36.98797474
  PAW double counting   =      2778.17089635    -2721.72976919
  entropy T*S    EENTRO =        -0.00000000
  eigenvalues    EBANDS =      -209.81977776
  atomic energy  EATOM  =      2236.30457717
  Solvation  Ediel_sol  =         0.00000000
  ---------------------------------------------------
  free energy    TOTEN  =       -16.53706945 eV

  energy without entropy =      -16.53706945  energy(sigma->0) =      -16.53706945


--------------------------------------------------------------------------------------------------------




--------------------------------------- Iteration      1(  10)  ---------------------------------------


    POTLOK:  cpu time    0.1979: real time    0.1980
    SETDIJ:  cpu time    0.0054: real time    0.0054
     EDDAV:  cpu time    0.6368: real time    0.6368
       DOS:  cpu time    0.0002: real time    0.0002
    CHARGE:  cpu time    0.0721: real time    0.0721
    MIXING:  cpu time    0.0068: real time    0.0068
    --------------------------------------------
      LOOP:  cpu time    0.9192: real time    0.9193

 eigenvalue-minimisations  :   758
 total energy-change (2. order) : 0.7299337E-03  (-0.2564367E-02)
 number of electron      33.9999998 magnetization 
 augmentation part        3.8456241 magnetization 

 DIPCOR: dipole corrections for dipol
 direction  3 min pos   196,
 dipolmoment           0.000000      0.000000     -0.039082 electrons x Angstroem
 Tr[quadrupol]       -78.244570

 energy correction for charged system         0.000000 eV
 dipol+quadrupol energy correction           -0.000612 eV
 added-field ion interaction         -0.805292 eV  (added to PSCEN)


 Broyden mixing:
  rms(total) = 0.13243E-01    rms(broyden)= 0.13240E-01
  rms(prec ) = 0.15117E-01
  weight for this iteration     100.00

 eigenvalues of (default mixing * dielectric matrix)
  average eigenvalue GAMMA=   1.2233
  2.4721  1.4465  0.9048  0.9048  0.3884

 Free energy of the ion-electron system (eV)
  ---------------------------------------------------
  alpha Z        PSCENC =        42.20539638
  Ewald energy   TEWEN  =      6067.38523595
  -Hartree energ DENC   =     -8246.52413081
  -exchange      EXHF   =         0.00000000
  -V(xc)+E(xc)   XCENC  =        37.02189945
  PAW double counting   =      2784.88284659    -2728.39366252
  entropy T*S    EENTRO =        -0.00000000
  eigenvalues    EBANDS =      -209.41850173
  atomic energy  EATOM  =      2236.30457717
  Solvation  Ediel_sol  =         0.00000000
  ---------------------------------------------------
  free energy    TOTEN  =       -16.53633952 eV

  energy without entropy =      -16.53633952  energy(sigma->0) =      -16.53633952


--------------------------------------------------------------------------------------------------------




--------------------------------------- Iteration      1(  11)  ---------------------------------------


    POTLOK:  cpu time    0.2003: real time    0.2004
    SETDIJ:  cpu time    0.0048: real time    0.0048
     EDDAV:  cpu time    0.6694: real time    0.6695
       DOS:  cpu time    0.0002: real time    0.0002
    CHARGE:  cpu time    0.0726: real time    0.0726
    MIXING:  cpu time    0.0069: real time    0.0069
    --------------------------------------------
      LOOP:  cpu time    0.9542: real time    0.9543

 eigenvalue-minimisations  :   812
 total energy-change (2. order) : 0.3548955E-04  (-0.1921504E-03)
 number of electron      33.9999998 magnetization 
 augmentation part        3.8429756 magnetization 

 DIPCOR: dipole corrections for dipol
 direction  3 min pos   198,
 dipolmoment           0.000000      0.000000     -0.038393 electrons x Angstroem
 Tr[quadrupol]       -78.242869

 energy correction for charged system         0.000000 eV
 dipol+quadrupol energy correction           -0.000591 eV
 added-field ion interaction         -0.965565 eV  (added to PSCEN)


 Broyden mixing:
  rms(total) = 0.83623E-02    rms(broyden)= 0.83604E-02
  rms(prec ) = 0.86951E-02
  weight for this iteration     100.00

 eigenvalues of (default mixing * dielectric matrix)
  average eigenvalue GAMMA=   1.2364
  2.4016  1.9359  0.3889  0.8566  0.8566  0.9785

 Free energy of the ion-electron system (eV)
  ---------------------------------------------------
  alpha Z        PSCENC =        42.04514551
  Ewald energy   TEWEN  =      6067.38523595
  -Hartree energ DENC   =     -8246.89944426
  -exchange      EXHF   =         0.00000000
  -V(xc)+E(xc)   XCENC  =        37.02791224
  PAW double counting   =      2784.00099418    -2727.50343380
  entropy T*S    EENTRO =        -0.00000000
  eigenvalues    EBANDS =      -208.89729102
  atomic energy  EATOM  =      2236.30457717
  Solvation  Ediel_sol  =         0.00000000
  ---------------------------------------------------
  free energy    TOTEN  =       -16.53630403 eV

  energy without entropy =      -16.53630403  energy(sigma->0) =      -16.53630403


--------------------------------------------------------------------------------------------------------




--------------------------------------- Iteration      1(  12)  ---------------------------------------


    POTLOK:  cpu time    0.1952: real time    0.1953
    SETDIJ:  cpu time    0.0049: real time    0.0049
     EDDAV:  cpu time    0.7050: real time    0.7050
       DOS:  cpu time    0.0002: real time    0.0002
    --------------------------------------------
      LOOP:  cpu time    0.9053: real time    0.9054

 eigenvalue-minimisations  :   844
 total energy-change (2. order) :-0.2583951E-04  (-0.1618665E-04)
 number of electron      33.9999998 magnetization 
 augmentation part        3.8429756 magnetization 

 DIPCOR: dipole corrections for dipol
 direction  3 min pos   199,
 dipolmoment           0.000000      0.000000     -0.037980 electrons x Angstroem
 Tr[quadrupol]       -78.242118

 energy correction for charged system         0.000000 eV
 dipol+quadrupol energy correction           -0.000578 eV
 added-field ion interaction         -1.041450 eV  (added to PSCEN)


 Free energy of the ion-electron system (eV)
  ---------------------------------------------------
  alpha Z        PSCENC =        41.96927237
  Ewald energy   TEWEN  =      6067.38523595
  -Hartree energ DENC   =     -8247.12577818
  -exchange      EXHF   =         0.00000000
  -V(xc)+E(xc)   XCENC  =        37.03218420
  PAW double counting   =      2781.75155126    -2725.24302810
  entropy T*S    EENTRO =        -0.00000000
  eigenvalues    EBANDS =      -208.61034454
  atomic energy  EATOM  =      2236.30457717
  Solvation  Ediel_sol  =         0.00000000
  ---------------------------------------------------
  free energy    TOTEN  =       -16.53632987 eV

  energy without entropy =      -16.53632987  energy(sigma->0) =      -16.53632987


--------------------------------------------------------------------------------------------------------




 average (electrostatic) potential at core
  the test charge radii are     0.9406  1.0178  1.2059
  (the norm of the test charge is              1.0000)
       1 -97.7429       2 -67.8847       3 -75.0475       4 -75.0004
 
 
 
 E-fermi :  -1.3749     XC(G=0):  -4.3773     alpha+bet : -4.0144


 k-point     1 :       0.0000    0.0000    0.0000
  band No.  band energies     occupation 
      1     -17.6279      2.00000
      2     -17.4860      2.00000
      3      -8.1343      2.00000
      4      -6.8981      2.00000
      5      -6.8772      2.00000
      6      -6.8715      2.00000
      7      -5.8737      2.00000
      8      -5.7795      2.00000
      9      -4.4242      2.00000
     10      -4.3872      2.00000
     11      -3.7896      2.00000
     12      -2.8051      2.00000
     13      -2.7516      2.00000
     14      -2.6821      2.00000
     15      -2.0831      2.00000
     16      -2.0683      2.00000
     17      -2.0185      2.00000
     18      -0.1875      0.00000
     19      -0.1162      0.00000
     20       2.2622      0.00000
     21       3.2643      0.00000
     22       3.8634      0.00000

 k-point     2 :       0.2500    0.0000    0.0000
  band No.  band energies     occupation 
      1     -17.3660      2.00000
      2     -17.2629      2.00000
      3      -7.7551      2.00000
      4      -7.0663      2.00000
      5      -6.7463      2.00000
      6      -6.6478      2.00000
      7      -6.2804      2.00000
      8      -5.4552      2.00000
      9      -5.1453      2.00000
     10      -4.6613      2.00000
     11      -4.4564      2.00000
     12      -3.0605      2.00000
     13      -2.8605      2.00000
     14      -2.8135      2.00000
     15      -2.2092      2.00000
     16      -2.1582      2.00000
     17      -1.8965      2.00000
     18      -0.0613      0.00000
     19       0.3943      0.00000
     20       3.7049      0.00000
     21       4.0683      0.00000
     22       4.5503      0.00000

 k-point     3 :       0.5000    0.0000    0.0000
  band No.  band energies     occupation 
      1     -17.1325      2.00000
      2     -16.9694      2.00000
      3      -7.8813      2.00000
      4      -7.5835      2.00000
      5      -6.5699      2.00000
      6      -6.5474      2.00000
      7      -6.1372      2.00000
      8      -5.7559      2.00000
      9      -4.7470      2.00000
     10      -4.5051      2.00000
     11      -3.4258      2.00000
     12      -3.2899      2.00000
     13      -3.1628      2.00000
     14      -2.9086      2.00000
     15      -2.8727      2.00000
     16      -2.8569      2.00000
     17      -2.4073      2.00000
     18      -0.0747      0.00000
     19       1.3105      0.00000
     20       2.5073      0.00000
     21       4.6024      0.00000
     22       4.9593      0.00000

 k-point     4 :      -0.2500   -0.0000    0.0000
  band No.  band energies     occupation 
      1     -17.3660      2.00000
      2     -17.2629      2.00000
      3      -7.7551      2.00000
      4      -7.0663      2.00000
      5      -6.7463      2.00000
      6      -6.6478      2.00000
      7      -6.2804      2.00000
      8      -5.4552      2.00000
      9      -5.1453      2.00000
     10      -4.6613      2.00000
     11      -4.4564      2.00000
     12      -3.0605      2.00000
     13      -2.8605      2.00000
     14      -2.8135      2.00000
     15      -2.2092      2.00000
     16      -2.1582      2.00000
     17      -1.8965      2.00000
     18      -0.0613      0.00000
     19       0.3943      0.00000
     20       3.7049      0.00000
     21       4.0683      0.00000
     22       4.5503      0.00000

 k-point     5 :       0.0000    0.2500    0.0000
  band No.  band energies     occupation 
      1     -17.3562      2.00000
      2     -17.2520      2.00000
      3      -7.7315      2.00000
      4      -7.0718      2.00000
      5      -6.7444      2.00000
      6      -6.6292      2.00000
      7      -6.2758      2.00000
      8      -5.5072      2.00000
      9      -5.1596      2.00000
     10      -4.7337      2.00000
     11      -4.4042      2.00000
     12      -3.0490      2.00000
     13      -2.8690      2.00000
     14      -2.8285      2.00000
     15      -2.1982      2.00000
     16      -2.1477      2.00000
     17      -1.8797      2.00000
     18      -0.1063      0.00000
     19       0.4519      0.00000
     20       3.7481      0.00000
     21       4.0797      0.00000
     22       4.5653      0.00000

 k-point     6 :       0.2500    0.2500    0.0000
  band No.  band energies     occupation 
      1     -17.1264      2.00000
      2     -16.9590      2.00000
      3      -7.5603      2.00000
      4      -7.1075      2.00000
      5      -6.9995      2.00000
      6      -6.3146      2.00000
      7      -6.2036      2.00000
      8      -5.8596      2.00000
      9      -5.3701      2.00000
     10      -5.1282      2.00000
     11      -3.7726      2.00000
     12      -3.3738      2.00000
     13      -3.1117      2.00000
     14      -2.9120      2.00000
     15      -2.8388      2.00000
     16      -2.2607      2.00000
     17      -1.9329      2.00000
     18      -0.1452      0.00000
     19       1.4643      0.00000
     20       3.2115      0.00000
     21       4.6801      0.00000
     22       5.6352      0.00000

 k-point     7 :       0.5000    0.2500    0.0000
  band No.  band energies     occupation 
      1     -17.1358      2.00000
      2     -16.9723      2.00000
      3      -7.5233      2.00000
      4      -7.0690      2.00000
      5      -7.0378      2.00000
      6      -6.3017      2.00000
      7      -6.1934      2.00000
      8      -5.8786      2.00000
      9      -5.3853      2.00000
     10      -5.1463      2.00000
     11      -3.7839      2.00000
     12      -3.3481      2.00000
     13      -3.1655      2.00000
     14      -2.9225      2.00000
     15      -2.8503      2.00000
     16      -2.2306      2.00000
     17      -1.9341      2.00000
     18      -0.1238      0.00000
     19       1.3950      0.00000
     20       3.2446      0.00000
     21       4.7058      0.00000
     22       5.6553      0.00000

 k-point     8 :      -0.2500    0.2500    0.0000
  band No.  band energies     occupation 
      1     -17.3658      2.00000
      2     -17.2628      2.00000
      3      -7.7548      2.00000
      4      -7.0664      2.00000
      5      -6.7463      2.00000
      6      -6.6475      2.00000
      7      -6.2804      2.00000
      8      -5.4559      2.00000
      9      -5.1455      2.00000
     10      -4.6621      2.00000
     11      -4.4558      2.00000
     12      -3.0603      2.00000
     13      -2.8608      2.00000
     14      -2.8135      2.00000
     15      -2.2091      2.00000
     16      -2.1581      2.00000
     17      -1.8963      2.00000
     18      -0.0619      0.00000
     19       0.3951      0.00000
     20       3.7054      0.00000
     21       4.0685      0.00000
     22       4.5505      0.00000

 k-point     9 :       0.0000    0.5000    0.0000
  band No.  band energies     occupation 
      1     -17.1145      2.00000
      2     -16.9432      2.00000
      3      -7.8588      2.00000
      4      -7.5851      2.00000
      5      -6.5734      2.00000
      6      -6.5687      2.00000
      7      -6.1254      2.00000
      8      -5.8311      2.00000
      9      -4.7108      2.00000
     10      -4.5077      2.00000
     11      -3.4686      2.00000
     12      -3.2695      2.00000
     13      -3.2089      2.00000
     14      -2.9104      2.00000
     15      -2.8317      2.00000
     16      -2.7848      2.00000
     17      -2.4043      2.00000
     18      -0.1225      0.00000
     19       1.4506      0.00000
     20       2.4472      0.00000
     21       4.6088      0.00000
     22       4.8757      0.00000

 k-point    10 :       0.2500    0.5000    0.0000
  band No.  band energies     occupation 
      1     -17.1263      2.00000
      2     -16.9588      2.00000
      3      -7.5608      2.00000
      4      -7.1080      2.00000
      5      -6.9990      2.00000
      6      -6.3148      2.00000
      7      -6.2038      2.00000
      8      -5.8593      2.00000
      9      -5.3699      2.00000
     10      -5.1281      2.00000
     11      -3.7725      2.00000
     12      -3.3740      2.00000
     13      -3.1108      2.00000
     14      -2.9122      2.00000
     15      -2.8385      2.00000
     16      -2.2611      2.00000
     17      -1.9329      2.00000
     18      -0.1454      0.00000
     19       1.4651      0.00000
     20       3.2111      0.00000
     21       4.6797      0.00000
     22       5.6350      0.00000

 k-point    11 :       0.5000    0.5000    0.0000
  band No.  band energies     occupation 
      1     -17.1323      2.00000
      2     -16.9691      2.00000
      3      -7.8811      2.00000
      4      -7.5835      2.00000
      5      -6.5700      2.00000
      6      -6.5477      2.00000
      7      -6.1370      2.00000
      8      -5.7568      2.00000
      9      -4.7465      2.00000
     10      -4.5052      2.00000
     11      -3.4264      2.00000
     12      -3.2896      2.00000
     13      -3.1635      2.00000
     14      -2.9079      2.00000
     15      -2.8724      2.00000
     16      -2.8564      2.00000
     17      -2.4072      2.00000
     18      -0.0753      0.00000
     19       1.3121      0.00000
     20       2.5067      0.00000
     21       4.6026      0.00000
     22       4.9582      0.00000

 k-point    12 :      -0.2500    0.5000    0.0000
  band No.  band energies     occupation 
      1     -17.1263      2.00000
      2     -16.9588      2.00000
      3      -7.5608      2.00000
      4      -7.1080      2.00000
      5      -6.9990      2.00000
      6      -6.3148      2.00000
      7      -6.2038      2.00000
      8      -5.8593      2.00000
      9      -5.3699      2.00000
     10      -5.1281      2.00000
     11      -3.7725      2.00000
     12      -3.3740      2.00000
     13      -3.1108      2.00000
     14      -2.9122      2.00000
     15      -2.8385      2.00000
     16      -2.2611      2.00000
     17      -1.9329      2.00000
     18      -0.1454      0.00000
     19       1.4651      0.00000
     20       3.2111      0.00000
     21       4.6797      0.00000
     22       5.6349      0.00000

 k-point    13 :      -0.0000   -0.2500    0.0000
  band No.  band energies     occupation 
      1     -17.3562      2.00000
      2     -17.2520      2.00000
      3      -7.7315      2.00000
      4      -7.0718      2.00000
      5      -6.7444      2.00000
      6      -6.6292      2.00000
      7      -6.2758      2.00000
      8      -5.5072      2.00000
      9      -5.1596      2.00000
     10      -4.7337      2.00000
     11      -4.4042      2.00000
     12      -3.0490      2.00000
     13      -2.8690      2.00000
     14      -2.8285      2.00000
     15      -2.1982      2.00000
     16      -2.1477      2.00000
     17      -1.8797      2.00000
     18      -0.1063      0.00000
     19       0.4519      0.00000
     20       3.7481      0.00000
     21       4.0797      0.00000
     22       4.5653      0.00000

 k-point    14 :       0.2500   -0.2500    0.0000
  band No.  band energies     occupation 
      1     -17.3658      2.00000
      2     -17.2628      2.00000
      3      -7.7548      2.00000
      4      -7.0664      2.00000
      5      -6.7463      2.00000
      6      -6.6475      2.00000
      7      -6.2804      2.00000
      8      -5.4559      2.00000
      9      -5.1455      2.00000
     10      -4.6621      2.00000
     11      -4.4558      2.00000
     12      -3.0603      2.00000
     13      -2.8608      2.00000
     14      -2.8135      2.00000
     15      -2.2091      2.00000
     16      -2.1581      2.00000
     17      -1.8963      2.00000
     18      -0.0619      0.00000
     19       0.3951      0.00000
     20       3.7054      0.00000
     21       4.0685      0.00000
     22       4.5505      0.00000

 k-point    15 :       0.5000   -0.2500    0.0000
  band No.  band energies     occupation 
      1     -17.1358      2.00000
      2     -16.9723      2.00000
      3      -7.5233      2.00000
      4      -7.0690      2.00000
      5      -7.0378      2.00000
      6      -6.3017      2.00000
      7      -6.1934      2.00000
      8      -5.8786      2.00000
      9      -5.3853      2.00000
     10      -5.1463      2.00000
     11      -3.7839      2.00000
     12      -3.3481      2.00000
     13      -3.1655      2.00000
     14      -2.9225      2.00000
     15      -2.8503      2.00000
     16      -2.2306      2.00000
     17      -1.9341      2.00000
     18      -0.1238      0.00000
     19       1.3950      0.00000
     20       3.2446      0.00000
     21       4.7058      0.00000
     22       5.6552      0.00000

 k-point    16 :      -0.2500   -0.2500    0.0000
  band No.  band energies     occupation 
      1     -17.1264      2.00000
      2     -16.9590      2.00000
      3      -7.5603      2.00000
      4      -7.1075      2.00000
      5      -6.9995      2.00000
      6      -6.3146      2.00000
      7      -6.2036      2.00000
      8      -5.8596      2.00000
      9      -5.3701      2.00000
     10      -5.1282      2.00000
     11      -3.7726      2.00000
     12      -3.3738      2.00000
     13      -3.1117      2.00000
     14      -2.9120      2.00000
     15      -2.8388      2.00000
     16      -2.2607      2.00000
     17      -1.9329      2.00000
     18      -0.1452      0.00000
     19       1.4643      0.00000
     20       3.2115      0.00000
     21       4.6801      0.00000
     22       5.6352      0.00000


--------------------------------------------------------------------------------------------------------


 soft charge-density along one line, spin component           1
         0         1         2         3         4         5         6         7         8         9
 total charge-density along one line
 
 pseudopotential strength for first ion, spin component:           1
 49.260  51.698  -0.001   0.039  -0.000  -0.001   0.048  -0.000
 51.698  54.260  -0.001   0.041  -0.000  -0.001   0.051  -0.000
 -0.001  -0.001   9.298  -0.000  -0.000  11.525  -0.000  -0.000
  0.039   0.041  -0.000   9.296  -0.000  -0.000  11.523  -0.000
 -0.000  -0.000  -0.000  -0.000   9.298  -0.000  -0.000  11.525
 -0.001  -0.001  11.525  -0.000  -0.000  14.301  -0.000  -0.000
  0.048   0.051  -0.000  11.523  -0.000  -0.000  14.300  -0.000
 -0.000  -0.000  -0.000  -0.000  11.525  -0.000  -0.000  14.301
 total augmentation occupancy for first ion, spin component:           1
  8.509  -6.490   0.069  -3.084   0.001  -0.031   1.294  -0.001
 -6.490   6.422  -0.068   2.893  -0.001   0.032  -1.282   0.001
  0.069  -0.068   3.602  -0.026   0.000  -1.072   0.015  -0.000
 -3.084   2.893  -0.026   3.391  -0.001   0.015  -0.941   0.000
  0.001  -0.001   0.000  -0.001   3.588  -0.000   0.000  -1.065
 -0.031   0.032  -1.072   0.015  -0.000   0.489  -0.006   0.000
  1.294  -1.282   0.015  -0.941   0.000  -0.006   0.437  -0.000
 -0.001   0.001  -0.000   0.000  -1.065   0.000  -0.000   0.484


------------------------ aborting loop because EDIFF is reached ----------------------------------------


    CHARGE:  cpu time    0.0707: real time    0.0707
    FORLOC:  cpu time    0.0150: real time    0.0150
    FORNL :  cpu time    0.0862: real time    0.0862
    STRESS:  cpu time    0.4765: real time    0.4765
    FORCOR:  cpu time    0.1902: real time    0.1903
    FORHAR:  cpu time    0.0382: real time    0.0382
    MIXING:  cpu time    0.0082: real time    0.0082
    OFIELD:  cpu time    0.0000: real time    0.0000

 ---------------------------------------------------------------------------------------------

         DFTD3 V3.0 Rev 1        
 IVDW         = 11
 DF pbe       
 parameters
 VDW_S6       =    1.0000
 VDW_S8       =    0.7220
 VDW_SR       =    1.2170
 rs18     =    1.0000
 alpha6   =   14.0000
 alpha8   =   16.0000
 k1-k3    =   16.0000    1.3333   -4.0000
 VDW_RADIUS   =   50.2022 A
 VDW_CNRADIUS =   21.1671 A
 Edisp (eV)   -1.24781

 E6    (eV) :    -0.3628
 E8    (eV) :    -0.8850
 % E8        : 70.93
    FORVDW:  cpu time    0.0180: real time    0.0180

  FORCE on cell =-STRESS in cart. coord.  units (eV):
  Direction    XX          YY          ZZ          XY          YZ          ZX
  --------------------------------------------------------------------------------------
  Alpha Z    43.01130    43.01130    43.01130
  Ewald    7587.58803  7594.93421 -9115.13704     0.03583    -9.48693    -0.19204
  Hartree  8066.26575  8069.32776 -7887.00010     0.01445    -3.33392    -0.06781
  E(xc)    -141.21215  -141.25292  -141.67188    -0.00021    -0.00575    -0.00013
  Local  -16282.07959-16293.05005 16367.68975    -0.05296    12.30588     0.24944
  n-local   142.60164   143.43601   144.38428     0.00435    -0.38832    -0.00768
  augment    78.73539    78.78488    79.55028     0.00013     0.08914     0.00182
  Kinetic   506.29786   507.10834   509.93225     0.00401     0.36189     0.00734
  Fock        0.00000     0.00000     0.00000     0.00000     0.00000     0.00000
  vdW        -0.76829    -0.72815    -0.23620     0.00021     0.00794     0.00016
  -------------------------------------------------------------------------------------
  Total       0.43995     1.57139     0.52264     0.00582    -0.45008    -0.00889
  in kB       3.12345    11.15627     3.71056     0.04133    -3.19536    -0.06309
  external pressure =        6.00 kB  Pullay stress =        0.00 kB


 VOLUME and BASIS-vectors are now :
 -----------------------------------------------------------------------------
  energy-cutoff  :      300.00
  volume of cell :      225.67
      direct lattice vectors                 reciprocal lattice vectors
     3.636944978 -0.036443352  0.000000000     0.276542904  0.158364267  0.000000000
    -1.786911496  3.120386333  0.000000000     0.003229776  0.322322693  0.000000000
     0.000000000  0.000000000 20.000000000     0.000000000  0.000000000  0.050000000

  length of vectors
     3.637127560  3.595811948 20.000000000     0.318677295  0.322338874  0.050000000


 FORCES acting on ions
    electron-ion (+dipol)            ewald-force                    non-local-force                 convergence-correction
 -----------------------------------------------------------------------------------------------
   -.433E-01 -.214E+01 0.101E+04   0.454E-01 0.225E+01 -.101E+04   -.605E-03 -.307E-01 0.557E+01   0.232E-04 -.101E-02 -.107E+00
   0.356E-01 0.175E+01 -.102E+04   -.371E-01 -.183E+01 0.102E+04   -.350E-03 -.185E-01 -.266E+01   0.584E-04 0.845E-03 0.110E+00
   0.136E-01 0.682E+00 -.577E+03   -.131E-01 -.654E+00 0.570E+03   -.171E-02 -.820E-01 0.667E+01   0.551E-04 -.564E-03 0.149E+00
   -.492E-02 -.237E+00 0.583E+03   0.481E-02 0.233E+00 -.576E+03   0.158E-02 0.761E-01 -.655E+01   -.444E-04 0.405E-03 -.994E-01
 -----------------------------------------------------------------------------------------------
   0.988E-03 0.554E-01 -.309E+01   -.542E-14 0.214E-14 0.000E+00   -.108E-02 -.551E-01 0.304E+01   0.923E-04 -.319E-03 0.531E-01
 
 
 POSITION                                       TOTAL-FORCE (eV/Angst)
 -----------------------------------------------------------------------------------
     -0.89327      1.56007      3.36693         0.001462      0.072310     -0.124754
     -0.89327      1.56007      7.71448        -0.001785     -0.090339      0.144360
      0.91468      0.50779      6.20974        -0.001090     -0.053589      0.070119
      0.93572      2.57590      4.71353         0.001413      0.071617     -0.089725
 -----------------------------------------------------------------------------------
    total drift:                               -0.000002      0.000032     -0.004261


--------------------------------------------------------------------------------------------------------



  FREE ENERGIE OF THE ION-ELECTRON SYSTEM (eV)
  ---------------------------------------------------
  free  energy   TOTEN  =       -17.78413768 eV

  energy  without entropy=      -17.78413768  energy(sigma->0) =      -17.78413768
 


--------------------------------------------------------------------------------------------------------


    POTLOK:  cpu time    0.1999: real time    0.1999


--------------------------------------------------------------------------------------------------------


 Quasi-Newton relaxation of ions (Broydens 2nd method)
  g(Force)  = 0.341E-02   g(Stress)= 0.233E-02

 Reset! Starting new Quasi-Newton update for ions 


--------------------------------------------------------------------------------------------------------


    WAVPRE:  cpu time    0.7425: real time    0.7427
    FEWALD:  cpu time    0.0001: real time    0.0001
    GENKIN:  cpu time    0.0182: real time    0.0182
    ORTHCH:  cpu time    0.0176: real time    0.0176
     LOOP+:  cpu time   12.4109: real time   12.4233


--------------------------------------- Iteration      2(   1)  ---------------------------------------


    POTLOK:  cpu time    0.2013: real time    0.2014
    SETDIJ:  cpu time    0.0065: real time    0.0065
     EDDAV:  cpu time    0.6172: real time    0.6172
       DOS:  cpu time    0.0002: real time    0.0002
    CHARGE:  cpu time    0.0697: real time    0.0697
    MIXING:  cpu time    0.0065: real time    0.0065
    --------------------------------------------
      LOOP:  cpu time    0.9015: real time    0.9016

 eigenvalue-minimisations  :   704
 total energy-change (2. order) :-0.1561956E-01  (-0.8014008E-01)
 number of electron      33.9999998 magnetization 
 augmentation part        3.8755475 magnetization 

 DIPCOR: dipole corrections for dipol
 direction  3 min pos   199,
 dipolmoment           0.000000      0.000000     -0.037267 electrons x Angstroem
 Tr[quadrupol]       -78.307024

 energy correction for charged system         0.000000 eV
 dipol+quadrupol energy correction           -0.000554 eV
 added-field ion interaction         -1.016601 eV  (added to PSCEN)


 Broyden mixing:
  rms(total) = 0.66444E-01    rms(broyden)= 0.66414E-01
  rms(prec ) = 0.70175E-01
  weight for this iteration     100.00

 Free energy of the ion-electron system (eV)
  ---------------------------------------------------
  alpha Z        PSCENC =        41.76713069
  Ewald energy   TEWEN  =      6009.80627445
[...]
  band No.  band energies     occupation 
      1     -17.1134      2.00000
      2     -16.9679      2.00000
      3      -7.8556      2.00000
      4      -7.5574      2.00000
      5      -6.5319      2.00000
      6      -6.5265      2.00000
      7      -6.1352      2.00000
      8      -5.7227      2.00000
      9      -4.7647      2.00000
     10      -4.5095      2.00000
     11      -3.4391      2.00000
     12      -3.3216      2.00000
     13      -3.1659      2.00000
     14      -2.9262      2.00000
     15      -2.8809      2.00000
     16      -2.8400      2.00000
     17      -2.4343      2.00000
     18      -0.1383      0.00000
     19       1.2730      0.00000
     20       2.4411      0.00000
     21       4.5533      0.00000
     22       4.9254      0.00000

 k-point     4 :      -0.2500   -0.0000    0.0000
  band No.  band energies     occupation 
      1     -17.3465      2.00000
      2     -17.2582      2.00000
      3      -7.7353      2.00000
      4      -7.0375      2.00000
      5      -6.6980      2.00000
      6      -6.6285      2.00000
      7      -6.2655      2.00000
      8      -5.4208      2.00000
      9      -5.1503      2.00000
     10      -4.6500      2.00000
     11      -4.4809      2.00000
     12      -3.0902      2.00000
     13      -2.8731      2.00000
     14      -2.8360      2.00000
     15      -2.2435      2.00000
     16      -2.1735      2.00000
     17      -1.9262      2.00000
     18      -0.1240      0.00000
     19       0.3437      0.00000
     20       3.6936      0.00000
     21       4.0755      0.00000
     22       4.5934      0.00000

 k-point     5 :       0.0000    0.2500    0.0000
  band No.  band energies     occupation 
      1     -17.3363      2.00000
      2     -17.2462      2.00000
      3      -7.7068      2.00000
      4      -7.0299      2.00000
      5      -6.7273      2.00000
      6      -6.6212      2.00000
      7      -6.2551      2.00000
      8      -5.5036      2.00000
      9      -5.1496      2.00000
     10      -4.7192      2.00000
     11      -4.4060      2.00000
     12      -3.0733      2.00000
     13      -2.8820      2.00000
     14      -2.8412      2.00000
     15      -2.2165      2.00000
     16      -2.1782      2.00000
     17      -1.9113      2.00000
     18      -0.1405      0.00000
     19       0.3764      0.00000
     20       3.7241      0.00000
     21       4.0924      0.00000
     22       4.6178      0.00000

 k-point     6 :       0.2500    0.2500    0.0000
  band No.  band energies     occupation 
      1     -17.1067      2.00000
      2     -16.9566      2.00000
      3      -7.5311      2.00000
      4      -7.0831      2.00000
      5      -6.9755      2.00000
      6      -6.2952      2.00000
      7      -6.1952      2.00000
      8      -5.8596      2.00000
      9      -5.3689      2.00000
     10      -5.1227      2.00000
     11      -3.7821      2.00000
     12      -3.3829      2.00000
     13      -3.1090      2.00000
     14      -2.9212      2.00000
     15      -2.8437      2.00000
     16      -2.2733      2.00000
     17      -1.9583      2.00000
     18      -0.1890      0.00000
     19       1.3921      0.00000
     20       3.1584      0.00000
     21       4.6394      0.00000
     22       5.5845      0.00000

 k-point     7 :       0.5000    0.2500    0.0000
  band No.  band energies     occupation 
      1     -17.1167      2.00000
      2     -16.9708      2.00000
      3      -7.4980      2.00000
      4      -7.0456      2.00000
      5      -6.9962      2.00000
      6      -6.2783      2.00000
      7      -6.1785      2.00000
      8      -5.8750      2.00000
      9      -5.3847      2.00000
     10      -5.1284      2.00000
     11      -3.8089      2.00000
     12      -3.3585      2.00000
     13      -3.1801      2.00000
     14      -2.9372      2.00000
     15      -2.8753      2.00000
     16      -2.2470      2.00000
     17      -1.9585      2.00000
     18      -0.1804      0.00000
     19       1.3519      0.00000
     20       3.1776      0.00000
     21       4.6857      0.00000
     22       5.6290      0.00000

 k-point     8 :      -0.2500    0.2500    0.0000
  band No.  band energies     occupation 
      1     -17.3463      2.00000
      2     -17.2580      2.00000
      3      -7.7349      2.00000
      4      -7.0374      2.00000
      5      -6.6985      2.00000
      6      -6.6284      2.00000
      7      -6.2654      2.00000
      8      -5.4219      2.00000
      9      -5.1503      2.00000
     10      -4.6508      2.00000
     11      -4.4800      2.00000
     12      -3.0900      2.00000
     13      -2.8732      2.00000
     14      -2.8360      2.00000
     15      -2.2431      2.00000
     16      -2.1737      2.00000
     17      -1.9260      2.00000
     18      -0.1242      0.00000
     19       0.3441      0.00000
     20       3.6941      0.00000
     21       4.0757      0.00000
     22       4.5937      0.00000

 k-point     9 :       0.0000    0.5000    0.0000
  band No.  band energies     occupation 
      1     -17.0942      2.00000
      2     -16.9399      2.00000
      3      -7.8318      2.00000
      4      -7.5484      2.00000
      5      -6.5714      2.00000
      6      -6.5544      2.00000
      7      -6.1404      2.00000
      8      -5.8258      2.00000
      9      -4.7082      2.00000
     10      -4.5074      2.00000
     11      -3.4632      2.00000
     12      -3.2701      2.00000
     13      -3.1987      2.00000
     14      -2.8860      2.00000
     15      -2.8541      2.00000
     16      -2.7921      2.00000
     17      -2.4185      2.00000
     18      -0.1550      0.00000
     19       1.3557      0.00000
     20       2.4024      0.00000
     21       4.5287      0.00000
     22       4.8280      0.00000

 k-point    10 :       0.2500    0.5000    0.0000
  band No.  band energies     occupation 
      1     -17.1065      2.00000
      2     -16.9564      2.00000
      3      -7.5315      2.00000
      4      -7.0835      2.00000
      5      -6.9753      2.00000
      6      -6.2954      2.00000
      7      -6.1954      2.00000
      8      -5.8593      2.00000
      9      -5.3687      2.00000
     10      -5.1227      2.00000
     11      -3.7818      2.00000
     12      -3.3832      2.00000
     13      -3.1080      2.00000
     14      -2.9213      2.00000
     15      -2.8429      2.00000
     16      -2.2736      2.00000
     17      -1.9583      2.00000
     18      -0.1890      0.00000
     19       1.3926      0.00000
     20       3.1582      0.00000
     21       4.6388      0.00000
     22       5.5839      0.00000

 k-point    11 :       0.5000    0.5000    0.0000
  band No.  band energies     occupation 
      1     -17.1132      2.00000
      2     -16.9676      2.00000
      3      -7.8554      2.00000
      4      -7.5573      2.00000
      5      -6.5322      2.00000
      6      -6.5271      2.00000
      7      -6.1353      2.00000
      8      -5.7240      2.00000
      9      -4.7640      2.00000
     10      -4.5095      2.00000
     11      -3.4395      2.00000
     12      -3.3209      2.00000
     13      -3.1665      2.00000
     14      -2.9256      2.00000
     15      -2.8806      2.00000
     16      -2.8391      2.00000
     17      -2.4341      2.00000
     18      -0.1385      0.00000
     19       1.2740      0.00000
     20       2.4407      0.00000
     21       4.5530      0.00000
     22       4.9242      0.00000

 k-point    12 :      -0.2500    0.5000    0.0000
  band No.  band energies     occupation 
      1     -17.1065      2.00000
      2     -16.9564      2.00000
      3      -7.5315      2.00000
      4      -7.0835      2.00000
      5      -6.9753      2.00000
      6      -6.2954      2.00000
      7      -6.1954      2.00000
      8      -5.8593      2.00000
      9      -5.3687      2.00000
     10      -5.1227      2.00000
     11      -3.7818      2.00000
     12      -3.3832      2.00000
     13      -3.1080      2.00000
     14      -2.9213      2.00000
     15      -2.8429      2.00000
     16      -2.2736      2.00000
     17      -1.9583      2.00000
     18      -0.1890      0.00000
     19       1.3926      0.00000
     20       3.1582      0.00000
     21       4.6388      0.00000
     22       5.5839      0.00000

 k-point    13 :      -0.0000   -0.2500    0.0000
  band No.  band energies     occupation 
      1     -17.3363      2.00000
      2     -17.2462      2.00000
      3      -7.7068      2.00000
      4      -7.0299      2.00000
      5      -6.7273      2.00000
      6      -6.6212      2.00000
      7      -6.2551      2.00000
      8      -5.5036      2.00000
      9      -5.1496      2.00000
     10      -4.7192      2.00000
     11      -4.4060      2.00000
     12      -3.0733      2.00000
     13      -2.8820      2.00000
     14      -2.8412      2.00000
     15      -2.2165      2.00000
     16      -2.1782      2.00000
     17      -1.9113      2.00000
     18      -0.1405      0.00000
     19       0.3764      0.00000
     20       3.7241      0.00000
     21       4.0924      0.00000
     22       4.6178      0.00000

 k-point    14 :       0.2500   -0.2500    0.0000
  band No.  band energies     occupation 
      1     -17.3463      2.00000
      2     -17.2580      2.00000
      3      -7.7349      2.00000
      4      -7.0374      2.00000
      5      -6.6985      2.00000
      6      -6.6284      2.00000
      7      -6.2654      2.00000
      8      -5.4219      2.00000
      9      -5.1503      2.00000
     10      -4.6508      2.00000
     11      -4.4800      2.00000
     12      -3.0900      2.00000
     13      -2.8732      2.00000
     14      -2.8360      2.00000
     15      -2.2431      2.00000
     16      -2.1737      2.00000
     17      -1.9260      2.00000
     18      -0.1242      0.00000
     19       0.3441      0.00000
     20       3.6941      0.00000
     21       4.0757      0.00000
     22       4.5937      0.00000

 k-point    15 :       0.5000   -0.2500    0.0000
  band No.  band energies     occupation 
      1     -17.1167      2.00000
      2     -16.9708      2.00000
      3      -7.4980      2.00000
      4      -7.0456      2.00000
      5      -6.9962      2.00000
      6      -6.2783      2.00000
      7      -6.1785      2.00000
      8      -5.8750      2.00000
      9      -5.3847      2.00000
     10      -5.1284      2.00000
     11      -3.8089      2.00000
     12      -3.3585      2.00000
     13      -3.1801      2.00000
     14      -2.9372      2.00000
     15      -2.8753      2.00000
     16      -2.2470      2.00000
     17      -1.9585      2.00000
     18      -0.1804      0.00000
     19       1.3519      0.00000
     20       3.1776      0.00000
     21       4.6857      0.00000
     22       5.6290      0.00000

 k-point    16 :      -0.2500   -0.2500    0.0000
  band No.  band energies     occupation 
      1     -17.1067      2.00000
      2     -16.9566      2.00000
      3      -7.5311      2.00000
      4      -7.0831      2.00000
      5      -6.9755      2.00000
      6      -6.2952      2.00000
      7      -6.1952      2.00000
      8      -5.8596      2.00000
      9      -5.3689      2.00000
     10      -5.1227      2.00000
     11      -3.7821      2.00000
     12      -3.3829      2.00000
     13      -3.1090      2.00000
     14      -2.9212      2.00000
     15      -2.8437      2.00000
     16      -2.2733      2.00000
     17      -1.9583      2.00000
     18      -0.1890      0.00000
     19       1.3921      0.00000
     20       3.1584      0.00000
     21       4.6394      0.00000
     22       5.5845      0.00000


--------------------------------------------------------------------------------------------------------


 soft charge-density along one line, spin component           1
         0         1         2         3         4         5         6         7         8         9
 total charge-density along one line
 
 pseudopotential strength for first ion, spin component:           1
 49.256  51.695  -0.001   0.038  -0.000  -0.001   0.047  -0.000
 51.695  54.257  -0.001   0.040  -0.000  -0.001   0.050  -0.000
 -0.001  -0.001   9.297  -0.000  -0.000  11.524  -0.000  -0.000
  0.038   0.040  -0.000   9.296  -0.000  -0.000  11.523  -0.000
 -0.000  -0.000  -0.000  -0.000   9.297  -0.000  -0.000  11.524
 -0.001  -0.001  11.524  -0.000  -0.000  14.300  -0.000  -0.000
  0.047   0.050  -0.000  11.523  -0.000  -0.000  14.299  -0.000
 -0.000  -0.000  -0.000  -0.000  11.524  -0.000  -0.000  14.300
 total augmentation occupancy for first ion, spin component:           1
  8.377  -6.361   0.053  -3.047   0.001  -0.020   1.275  -0.000
 -6.361   6.297  -0.052   2.856  -0.001   0.021  -1.263   0.000
  0.053  -0.052   3.563  -0.018  -0.000  -1.046   0.010   0.000
 -3.047   2.856  -0.018   3.379  -0.000   0.011  -0.933   0.000
  0.001  -0.001  -0.000  -0.000   3.571   0.000   0.000  -1.053
 -0.020   0.021  -1.046   0.011   0.000   0.476  -0.003  -0.000
  1.275  -1.263   0.010  -0.933   0.000  -0.003   0.429  -0.000
 -0.000   0.000   0.000   0.000  -1.053  -0.000  -0.000   0.476


------------------------ aborting loop because EDIFF is reached ----------------------------------------


    CHARGE:  cpu time    0.0750: real time    0.0750
    FORLOC:  cpu time    0.0154: real time    0.0154
    FORNL :  cpu time    0.0866: real time    0.0866
    STRESS:  cpu time    0.4819: real time    0.4819
    FORCOR:  cpu time    0.1911: real time    0.1911
    FORHAR:  cpu time    0.0396: real time    0.0396
    MIXING:  cpu time    0.0080: real time    0.0080
    OFIELD:  cpu time    0.0000: real time    0.0000

 ---------------------------------------------------------------------------------------------

         DFTD3 V3.0 Rev 1        
 Edisp (eV)   -1.24512

 E6    (eV) :    -0.3618
 E8    (eV) :    -0.8833
 % E8        : 70.94
    FORVDW:  cpu time    0.0173: real time    0.0173

  FORCE on cell =-STRESS in cart. coord.  units (eV):
  Direction    XX          YY          ZZ          XY          YZ          ZX
  --------------------------------------------------------------------------------------
  Alpha Z    42.94778    42.94778    42.94778
  Ewald    7542.53322  7542.38244 -9062.16377    -0.00069    -6.77363    -0.14230
  Hartree  8021.09184  8021.59099 -7839.23601     0.00200    -2.44936    -0.05152
  E(xc)    -141.12930  -141.17696  -141.56580    -0.00025    -0.01379    -0.00030
  Local  -16191.49308-16192.89952 16267.56410    -0.00640     8.71920     0.18308
  n-local   142.25038   142.72807   143.78143     0.00257    -0.10911    -0.00217
  augment    78.72821    78.91991    79.55759     0.00068     0.04804     0.00106
  Kinetic   505.89516   507.20218   509.25412     0.00572     0.39057     0.00810
  Fock        0.00000     0.00000     0.00000     0.00000     0.00000     0.00000
  vdW        -0.77820    -0.72643    -0.26443     0.00024     0.01104     0.00024
  -------------------------------------------------------------------------------------
  Total       0.04602     0.96847    -0.12500     0.00386    -0.17704    -0.00382
  in kB       0.32623     6.86562    -0.88617     0.02739    -1.25508    -0.02711
  external pressure =        2.10 kB  Pullay stress =        0.00 kB


 VOLUME and BASIS-vectors are now :
 -----------------------------------------------------------------------------
  energy-cutoff  :      300.00
  volume of cell :      226.00
      direct lattice vectors                 reciprocal lattice vectors
     3.642324340 -0.036443352  0.000000000     0.276134476  0.158364267  0.000000000
    -1.789554496  3.120386333  0.000000000     0.003225006  0.322322693  0.000000000
     0.000000000  0.000000000 20.000000000     0.000000000  0.000000000  0.050000000

  length of vectors
     3.642506653  3.597126097 20.000000000     0.318322934  0.322338826  0.050000000


 FORCES acting on ions
    electron-ion (+dipol)            ewald-force                    non-local-force                 convergence-correction
 -----------------------------------------------------------------------------------------------
   -.332E-01 -.161E+01 0.101E+04   0.363E-01 0.174E+01 -.101E+04   -.184E-02 -.825E-01 0.566E+01   -.728E-03 -.274E-01 -.506E-01
   0.241E-01 0.113E+01 -.101E+04   -.254E-01 -.118E+01 0.102E+04   0.303E-03 0.105E-01 -.269E+01   0.384E-03 0.137E-01 -.781E-01
   0.126E-01 0.640E+00 -.575E+03   -.110E-01 -.562E+00 0.569E+03   -.198E-02 -.102E+00 0.667E+01   -.372E-04 0.215E-03 -.485E+00
   -.955E-03 -.392E-01 0.581E+03   0.381E-04 0.275E-03 -.574E+03   0.128E-02 0.628E-01 -.654E+01   0.109E-03 0.393E-02 -.434E+00
 -----------------------------------------------------------------------------------------------
   0.263E-02 0.123E+00 -.206E+01   0.117E-13 0.203E-13 -.227E-12   -.223E-02 -.111E+00 0.310E+01   -.272E-03 -.960E-02 -.105E+01
 
 
 POSITION                                       TOTAL-FORCE (eV/Angst)
 -----------------------------------------------------------------------------------
     -0.89430      1.57377      3.35199         0.000483      0.021769     -0.005735
     -0.89492      1.54426      7.72881        -0.000537     -0.025562      0.047231
      0.91596      0.50422      6.21325        -0.000358     -0.021982      0.012191
      0.93723      2.58159      4.71062         0.000412      0.025775     -0.053687
 -----------------------------------------------------------------------------------
    total drift:                                0.000126      0.002490     -0.008041


--------------------------------------------------------------------------------------------------------



  FREE ENERGIE OF THE ION-ELECTRON SYSTEM (eV)
  ---------------------------------------------------
  free  energy   TOTEN  =       -17.78950661 eV

  energy  without entropy=      -17.78950661  energy(sigma->0) =      -17.78950661
 
 d Force = 0.1488907E-03[ 0.106E-03, 0.192E-03]  d Energy = 0.8704591E-04 0.618E-04
 d Force = 0.2691107E+01[ 0.269E+01, 0.269E+01]  d Ewald  =-0.3197331E+01 0.589E+01


--------------------------------------------------------------------------------------------------------


    POTLOK:  cpu time    0.2044: real time    0.2044


--------------------------------------------------------------------------------------------------------


 Quasi-Newton relaxation of ions (Broydens 2nd method)
  g(Force)  = 0.365E-03   g(Stress)= 0.255E-04

 retain information from N=  1 steps
 eigenvalues of (default step * inverse Hessian matrix)
  average eigenvalue of G=   0.3413
 eigenvalue spectrum of G is  0.3413


--------------------------------------------------------------------------------------------------------


  
 reached required accuracy - stopping structural energy minimisation
 writing wavefunctions
     LOOP+:  cpu time    3.9251: real time    3.9257
    4ORBIT:  cpu time    0.0000: real time    0.0000

 total amount of memory used by VASP MPI-rank0    81633. kBytes
=======================================================================

   base      :      30000. kBytes
   nonl-proj :      18695. kBytes
   fftplans  :       8017. kBytes
   grid      :      17149. kBytes
   one-center:         62. kBytes
   wavefun   :       7710. kBytes
 
  
  
 General timing and accounting informations for this job:
 ========================================================
  
                  Total CPU time used (sec):       38.785
                            User time (sec):       38.049
                          System time (sec):        0.736
                         Elapsed time (sec):       39.075
  
                   Maximum memory used (kb):      199100.
                   Average memory used (kb):           0.
  
                          Minor page faults:        29605
                          Major page faults:            0
                 Voluntary context switches:           48
